LAMMPS data file via write_data, version 29 Sep 2021, timestep = 7000000

12100 atoms
4 atom types
10200 bonds
5 bond types
8400 angles
6 angle types
6500 dihedrals
6 dihedral types
100 impropers
1 improper types

0 74.2157205376219 xlo xhi
0 74.2157205376219 ylo yhi
0 74.2157205376219 zlo zhi

Masses

1 12.011
2 13.019
3 15.034
4 14.027

Pair Coeffs # lj/cut

1 0.07 3.55
2 0.11 3.75
3 0.175 3.905
4 0.118 3.905

Bond Coeffs # harmonic

1 469 1.4
2 469 1.4
3 317 1.51
4 260 1.526
5 260 1.526

Angle Coeffs # harmonic

1 85 120
2 85 120
3 85 120
4 85 120
5 63 112.4
6 63 112.4

Dihedral Coeffs # opls

1 1.411 -0.271 3.145 0
2 1.411 -0.271 3.145 0
3 0 7.25 0 0
4 0 7.25 0 0
5 0 7.25 0 0
6 0 7.25 0 0

Improper Coeffs # harmonic

1 2.2 0

Atoms # full

3938 657 4 0 4.776038651577507 7.918696452593895 4.651944623029343 -2 1 0
9194 1533 4 0 5.043003800665084 6.501168127454578 8.50647471164421 1 1 1
3181 531 3 0 1.174248962687129 4.526679604531244 5.932317878337891 -2 1 0
3939 657 4 0 4.3689043716122375 8.213604663229104 3.247359113297524 -2 1 0
5007 835 4 0 8.15661021292293 7.923712068957609 0.7193413320640486 1 0 2
7436 1240 4 0 6.078165432326173 4.478008287781003 3.920932207143052 1 0 1
7435 1240 3 0 7.378836780928616 4.1913605487654575 4.683335211984464 1 0 1
3940 657 4 0 2.844231447885817 8.023061683955222 3.1242839087423326 -2 1 0
3941 657 4 0 2.4641667781298886 8.029437153582244 1.6964927089469914 -2 1 0
7438 1240 4 0 4.7160712249815555 4.383340038000789 1.906386538498545 1 0 1
7437 1240 4 0 6.102673508679365 4.033189965574807 2.406467929656477 1 0 1
5005 835 3 0 9.90949673871582 6.3693528278107845 1.6458328678568146 1 0 2
5006 835 4 0 8.554274694095106 6.523386794068387 0.8902030705438551 1 0 2
11765 1953 3 0 9.048393897330675 2.6229730965940288 8.70197870997663 -3 0 -1
11766 1953 1 0 9.63929467751982 1.3244357933931479 9.132717751462312 -3 0 -1
4371 729 4 0 7.938185347503085 0.9182070572667507 0.9731483679711321 2 -2 -1
7439 1240 4 0 4.406435008216629 4.036746368778138 0.47798871592319064 1 0 1
9196 1533 4 0 4.662118107345679 4.022753463765825 8.238463532482044 1 1 1
9197 1533 4 0 5.112705955847731 2.640405838651874 8.521603678758563 1 1 1
9195 1533 4 0 5.522612235985284 5.134543641750547 8.791074404969233 1 1 1
9193 1533 3 0 6.116770212516847 7.541358914573896 8.912578848838876 1 1 1
3639 607 4 0 4.94328722653407 10.969848971791206 17.49803873816465 -3 5 -2
4370 729 4 0 8.36608113796303 2.152613807705813 0.2943989427191761 2 -2 -1
4372 729 4 0 8.328713280575373 0.7574250769879847 2.4889797988928652 2 -2 -1
3942 657 3 0 0.9860902553259724 7.882427844357148 1.347645678810178 -2 1 0
11969 1982 1 0 13.186533186459116 2.2138313389081343 4.736143830678372 -1 3 1
30 5 3 0 12.128102541184623 15.140688681339125 12.680637394726896 -1 -1 1
8961 1494 4 0 11.434892095773366 7.344499481705675 5.15410528592993 0 -3 3
2709 452 4 0 14.06419338289084 4.348875628284936 9.253675253972306 2 1 1
2707 452 3 0 13.542715550073208 6.8797407586077215 9.19532101793568 2 1 1
8962 1494 4 0 11.985737844677713 8.749960972620629 5.267940011922155 0 -3 3
8959 1494 3 0 9.897881270722726 7.079734827430275 7.142089165194361 0 -3 3
8960 1494 4 0 10.051576289145682 7.4081491774525725 5.647755699952184 0 -3 3
11470 1910 2 0 0.5304392820274638 0.08549880012063775 15.436917627846023 4 0 2
9475 1580 3 0 17.184855325738813 6.848720962664098 6.615661547695261 0 3 2
9476 1580 4 0 15.801383436432788 6.500734349054746 5.975067711804544 0 3 2
9478 1580 4 0 16.905546428214077 5.799519830627484 3.9473819457599166 0 3 2
9477 1580 4 0 15.895302814515308 5.369285108483132 5.002237798577211 0 3 2
7425 1238 4 0 13.024236104466906 2.328212429590921 0.09047456683840756 -2 0 1
11971 1982 2 0 11.448426490981118 3.857057425155252 4.656247587004261 -1 3 1
9479 1580 4 0 16.793987295418773 4.895003399382985 2.721993432689931 0 3 2
1418 237 4 0 3.3800988260080946 0.4535890009387463 2.897674459692664 1 3 5
11970 1982 2 0 12.757501404259505 3.4900846904819165 4.279788695496213 -1 3 1
1550 259 4 0 8.187680433247609 7.035539782139912 17.812134466318977 0 -1 -2
11972 1982 2 0 10.657608491283344 3.0674978034869165 5.502472729088461 -1 3 1
1417 237 3 0 3.222877377044555 0.7030321719770048 1.4341361684346758 1 3 5
11973 1982 2 0 11.142495423783144 1.8530553634924598 5.874967232580677 -1 3 1
9480 1580 3 0 17.474701432682096 3.593581449505752 2.9956180406954425 0 3 2
327 55 4 0 10.57878258518748 0.5064617116285223 18.210693257273483 1 5 4
11968 1982 3 0 14.577340005620908 1.833324241978388 4.411789228106547 -1 3 1
4066 678 4 0 18.130231497374826 1.5479868953330898 9.008818068298988 -1 1 2
2708 452 4 0 14.051940261432476 5.673060327967458 9.94328673824231 2 1 1
3182 531 4 0 0.4171065752447698 4.816299556311816 4.6295741701557205 -2 1 0
3937 657 3 0 6.210532675318067 8.118651351723218 4.824670025735899 -2 1 0
9707 1618 4 0 1.9159674737137813 10.325491325989134 7.573727463323568 1 0 -1
10256 1710 4 0 1.951633538890818 12.279137865396697 1.8471941028545193 -1 0 -2
10260 1710 3 0 6.3343885807536155 13.48000700552037 3.9179541442580557 -1 0 -2
5008 835 4 0 6.730371174042157 7.921485006082221 0.15945970968396722 1 0 2
9705 1618 4 0 2.462877887093513 12.468685117867603 6.668671309762535 1 0 -1
9704 1618 4 0 3.649510748972893 13.273365170176099 6.3657498507356545 1 0 -1
9703 1618 3 0 3.471615283487199 14.761237959663944 6.427577611229555 1 0 -1
6660 1110 3 0 1.0507481553489268 16.96458924652204 4.1115310463720425 2 -3 4
9706 1618 4 0 2.8336238370566154 11.026038275736973 6.68639352394775 1 0 -1
11577 1926 1 0 10.63234822312788 12.125005731963332 3.1671007050214186 -3 5 0
10257 1710 4 0 3.2120100728709113 11.877348943865693 2.533126087937297 -1 0 -2
10258 1710 4 0 4.402438470205233 12.866663197227108 2.4735570339225967 -1 0 -2
10259 1710 4 0 5.538148736736072 12.369487177785306 3.351902748590246 -1 0 -2
10407 1735 4 0 1.4322741758199304 15.883343111297538 9.426482385386747 -4 -1 2
11581 1926 2 0 12.159259516807989 12.382428843471796 1.2824549779217975 -3 5 0
11580 1926 2 0 11.21792203317263 11.85376260051931 0.36874831455254053 -3 5 0
11579 1926 2 0 10.058541484173343 11.317083433843605 0.9410060886401516 -3 5 0
10406 1735 4 0 0.2642376532959512 16.735273329441736 9.914007782136812 -4 -1 2
6203 1034 4 0 6.604440626555356 15.890636634831584 8.851045572863615 0 -1 1
10255 1710 3 0 1.3503577444150385 13.407169251785144 2.6080673440275 -1 0 -2
11466 1910 2 0 2.9081744256347686 0.006023297764727431 15.050388488037225 4 0 2
11578 1926 2 0 9.81907808278289 11.412006293980975 2.3065391250836584 -3 5 0
6201 1034 4 0 9.062516866102984 15.110202198500218 8.648764349584535 0 -1 1
3597 600 4 0 8.76342762164975 16.769028034150168 0.6229357399364807 -3 -3 -3
2560 427 4 0 10.826652891512454 17.854517192989782 5.390727604117549 3 3 2
2562 427 3 0 8.424804533856753 18.30380131250414 6.1133229818349415 3 3 2
3596 600 4 0 7.906513455948624 17.526019171086393 1.7457705311476592 -3 -3 -3
6613 1103 3 0 7.571108955406661 11.048110595319772 8.193619638001021 0 0 2
6615 1103 4 0 9.282774913893741 10.602219675241663 10.128774021276682 0 0 2
2557 427 3 0 12.540848937955252 15.596083609391163 4.497031557825589 3 3 2
8963 1494 4 0 13.124081921212346 9.014480855687703 4.389663680457049 0 -3 3
11576 1926 3 0 10.184230390061138 12.28709332492413 4.6258697449854305 -3 5 0
11582 1926 2 0 11.851612998540494 12.58920545295499 2.694802395215158 -3 5 0
8964 1494 3 0 12.954884806885042 8.624023095890127 2.961702058322041 0 -3 3
4561 761 3 0 15.81943386762971 10.066299589286146 8.243714253290188 -3 -4 0
4351 726 3 0 16.20191527161827 13.531584882360631 4.179367166478804 -2 1 2
4352 726 4 0 17.72028948502116 13.750478212121898 4.303028416105537 -2 1 2
4353 726 4 0 18.335078417806912 13.917922664294398 2.8935965920650135 -2 1 2
6199 1034 3 0 11.588103754797881 14.509370717056363 8.610184428968363 0 -1 1
9864 1644 3 0 15.835684861088998 12.15354316286785 0.5170631156639933 -3 -2 -1
4562 761 4 0 15.595012069762594 10.81501954059822 9.533944014109405 -3 -4 0
2559 427 4 0 11.910374878325378 18.02364381976587 4.25057287127613 3 3 2
326 55 4 0 9.931126584710999 1.859745300202347 18.337284419361644 1 5 4
6616 1103 4 0 9.50384313214734 10.877530556436922 11.612066678911109 0 0 2
3641 607 4 0 2.530455664541756 10.598678318817274 17.007322353799804 -3 5 -2
2377 397 3 0 10.272356362026962 5.44645000662975 11.230859309929464 2 3 2
11771 1953 2 0 10.981761135758742 1.3568203662629783 9.506473445969059 -3 0 -1
11468 1910 2 0 1.9374961337244119 2.1106720848583786 15.592809575687657 4 0 2
836 140 4 0 14.817296614579867 13.195531751363605 17.090955008413857 2 5 -1
11143 1858 3 0 6.66220737118053 2.782298068452727 12.046332188996422 1 -3 2
9198 1533 3 0 4.230671227290606 1.546555661484358 7.8603254414255455 1 1 1
8145 1358 4 0 0.6452649738728882 0.8532493031577998 9.89441174474664 3 -2 0
8143 1358 3 0 1.6039220011254216 2.2678431681845366 11.854081152347561 3 -2 0
8144 1358 4 0 0.69312242381508 1.0735560956180439 11.369344700003465 3 -2 0
11974 1982 2 0 12.416388900077417 1.4553009950985942 5.617093108557168 -1 3 1
1259 210 4 0 17.913891933352843 6.034042638860002 18.49899688675763 1 -1 1
2454 409 3 0 18.467218045022022 7.6164064989496305 10.782083698545643 2 1 0
1979 330 4 0 2.037454428046614 6.034519716620791 11.61660930443607 -1 1 -1
1978 330 4 0 0.9041760385986384 6.724903829140162 10.923647585543943 -1 1 -1
1554 259 3 0 4.234760318539377 4.89626321325158 15.42520668018124 0 -1 -2
6879 1147 4 0 0.2821683937307972 5.513541893896345 16.153035388750755 -5 -3 -2
2382 397 3 0 7.475113409424222 8.872640808450752 14.411946559125838 2 3 2
2381 397 4 0 6.99882172514983 8.105933339516906 13.19714117159205 2 3 2
2380 397 4 0 8.097579492062792 7.567734744819116 12.324906972439802 2 3 2
1553 259 4 0 4.8012428958257045 5.615291847916551 16.67980103298551 0 -1 -2
1552 259 4 0 6.271295287984873 6.059973005362431 16.657362269902393 0 -1 -2
2379 397 4 0 9.190009256281009 6.847681535509805 13.099538035215561 2 3 2
1549 259 3 0 9.131419963627213 6.29500834112459 16.859531852759623 0 -1 -2
1977 330 4 0 0.31693292793753874 5.70530520160574 9.931961135932417 -1 1 -1
1551 259 4 0 6.784316677012411 6.4808478985172036 17.91270897680128 0 -1 -2
11144 1858 4 0 7.1175647238527935 1.723666749876195 13.094388886027149 1 -3 2
11145 1858 4 0 8.68044082357049 1.6295348104555143 13.117323205078135 1 -3 2
1980 330 3 0 3.0753919264365153 6.999170800470089 12.35925827589381 -1 1 -1
3642 607 3 0 2.788900336033785 9.195224115260139 16.654519766909374 -3 5 -2
3598 600 4 0 10.30433131860801 16.948265596541148 0.91889753423943 -3 -3 -3
6617 1103 4 0 10.832539787135087 10.11862997418994 12.034513877325036 0 0 2
2378 397 4 0 10.450959505264418 6.472358431777465 12.324689901774112 2 3 2
4065 678 4 0 18.052021116352243 1.6272065251755394 10.543600761969127 -1 1 2
2710 452 4 0 14.670015026645268 3.272952637146004 10.145962527999473 2 1 1
2711 452 4 0 13.682335125292594 2.986847875640642 11.32166760867896 2 1 1
4064 678 4 0 17.985687034276552 0.2798724356061085 11.272429200054004 -1 1 2
11770 1953 2 0 11.62540354945616 0.26036917261818043 10.01775441142407 -3 0 -1
7511 1252 4 0 0.6751938908480245 15.662535947292465 18.374114656412086 3 0 -3
7722 1287 3 0 18.428350588246115 10.985641864279652 12.859159411226544 1 1 0
2453 409 4 0 18.190933534394038 7.051406265274957 12.147099288461494 2 1 0
26 5 4 0 10.674064047693493 14.401652628375608 16.75294697374112 -1 -1 1
2452 409 4 0 16.800285175386275 6.504134437139894 12.259730475900104 2 1 0
2712 452 3 0 14.135219567573257 2.039356019407691 12.42994734504205 2 1 1
2451 409 4 0 16.446086775201607 5.851096357567471 13.601665145394799 2 1 0
2450 409 4 0 16.980854015770937 4.452524461165024 13.644085955518328 2 1 0
11146 1858 4 0 9.260257538079765 2.779150090330019 13.963543877291825 1 -3 2
11147 1858 4 0 10.810607146603418 2.635785018698613 13.757314767566672 1 -3 2
11148 1858 3 0 11.446399093202704 3.6592761064220367 14.646053879048727 1 -3 2
2449 409 3 0 16.7482268202353 3.7437627236838704 14.946362631052994 2 1 0
6965 1161 4 0 15.662247787381368 18.076587183785453 13.190060968374201 1 0 -1
840 140 3 0 14.3562750758974 8.829156046747569 14.602595435775942 2 5 -1
837 140 4 0 14.859914747401119 12.430050799042533 15.731385366323504 2 5 -1
1260 210 3 0 17.156025866156583 7.270844532212395 17.98249787567898 1 -1 1
9059 1510 4 0 12.577837283732348 5.367604548848026 18.422550246131138 1 -1 -1
6202 1034 4 0 8.11594959122614 16.058303877158256 9.297892206177776 0 -1 1
10408 1735 4 0 1.568828999245425 14.490685225647448 10.151503065842018 -4 -1 2
6204 1034 3 0 5.630702330622428 16.887034746888293 9.500410374445647 0 -1 1
6880 1147 4 0 0.18426548010781293 6.1208805236006905 17.53451005822431 -5 -3 -2
25 5 3 0 10.74928604161183 13.749763138686351 18.131889981342084 -1 -1 1
7510 1252 4 0 1.014613543243781 15.706641531567803 16.882212560636706 3 0 -3
3638 607 4 0 6.170328053120924 11.731231620384618 17.205639527759782 -3 5 -2
3640 607 4 0 3.75565458431847 11.410839239635763 16.664106415205293 -3 5 -2
2558 427 4 0 13.013652268286874 17.045413381439875 4.547346884777673 3 3 2
4015 670 3 0 5.288828888750958 16.625940178891508 17.578310486472674 -2 0 0
7507 1252 3 0 1.9104134415658318 14.43319186152429 14.034900792376762 3 0 -3
6819 1137 4 0 6.09861444657513 13.350017041765776 12.34212935307333 -4 0 1
6818 1137 4 0 5.103750228608569 12.338014481926907 12.66052945801704 -4 0 1
6817 1137 3 0 4.729300565434508 11.466748193845854 11.440752010749286 -4 0 1
7508 1252 4 0 0.5340411354965048 14.254150223049466 14.70229622913594 3 0 -3
6821 1137 4 0 7.472243029772666 15.363516675907748 13.518906195034573 -4 0 1
6820 1137 4 0 6.43298508495894 14.250599894022153 13.606008119579696 -4 0 1
3637 607 3 0 7.3046913970037055 11.211085780856324 18.08571892486982 -3 5 -2
6614 1103 4 0 7.99013764380283 11.304894232689156 9.646056689494758 0 0 2
6822 1137 3 0 7.587274987872722 16.429964863929797 14.567535633616487 -4 0 1
28 5 4 0 11.012912278530074 13.786983747316595 14.322957058775524 -1 -1 1
29 5 4 0 12.05845750634329 14.865250518999451 14.184194899792889 -1 -1 1
4564 761 4 0 15.754329142646899 13.003082603471793 10.77928696497266 -3 -4 0
27 5 4 0 10.836022323863299 13.307127125985685 15.751297127834444 -1 -1 1
11469 1910 2 0 0.667606180571761 1.46793339521952 15.74680791802155 4 0 2
6200 1034 4 0 10.440431810632298 15.44838944768132 9.019537144313125 0 -1 1
4563 761 4 0 15.644846572638231 12.330616613206896 9.35365846054296 -3 -4 0
6618 1103 3 0 11.95576718178426 10.495411246356086 11.126751190793216 0 0 2
4565 761 4 0 16.158196944940254 14.444467857569546 10.871718519645864 -3 -4 0
839 140 4 0 14.774408782505837 10.271667332518236 14.44068712060025 2 5 -1
6966 1161 3 0 14.669634659940487 17.868848366012458 14.28973760981137 1 0 -1
838 140 4 0 14.660523925877726 10.930132684030761 15.812042317987425 2 5 -1
4566 761 3 0 15.087540183927905 15.309577470010037 10.274671476188116 -3 -4 0
325 55 3 0 8.598733132396763 2.0087315679120725 17.598898930499086 1 5 4
3595 600 3 0 6.395101815544875 17.298401765199145 1.6206335997351144 -3 -3 -3
835 140 3 0 14.910457809416192 14.747222190612518 16.95832107452986 2 5 -1
9708 1618 3 0 1.937313313216972 8.84554843069506 7.560677941683023 1 0 -1
2561 427 4 0 9.5333989233832 18.531055137354688 5.071776551735924 3 3 2
11467 1910 2 0 3.0979799978871214 1.3523942038693604 15.330539614350544 4 0 2
4063 678 3 0 17.39520227437425 0.4684627540058411 12.661592844357216 -1 1 2
3198 533 3 0 18.297456724668535 9.875168022251364 3.4119367156424305 0 -1 -1
11767 1953 2 0 8.887127548212856 0.14895249246483647 9.400664076480917 -3 0 -1
7440 1240 3 0 2.979363358694616 3.846801861334101 0.05332598576382094 1 0 1
4068 678 3 0 18.439424084603655 2.935460323444018 6.907143259203002 -1 1 2
4067 678 4 0 18.331196515832854 2.9548651059422695 8.39915414783768 -1 1 2
7721 1287 4 0 18.504843401400922 10.089869345946575 14.098550482114977 1 1 0
7509 1252 4 0 0.505173032363194 14.423020383233816 16.213679741678057 3 0 -3
10410 1735 3 0 0.35001609869925887 12.368998406859054 11.055361764590566 -4 -1 2
6881 1147 4 0 1.5065242634016136 5.859589239911822 18.337691597859262 -5 -3 -2
10409 1735 4 0 0.2596413899304082 13.5792525439164 10.066191405610367 -4 -1 2
9060 1510 3 0 13.672768892110897 4.344742291045731 18.42785378270551 1 -1 -1
7426 1238 4 0 12.631395290047095 3.810786642063097 0.13382906262062022 -2 0 1
4203 701 4 0 0.6985887211858303 6.10910247908965 25.053674555423996 0 2 -3
2103 351 4 0 7.805256173873549 7.3846939124296656 25.76859222935282 1 0 2
3967 662 3 0 4.424279445486191 3.496959525351699 21.8692427328969 0 -1 0
2104 351 4 0 6.55931811844049 8.026067519845327 26.440551711270516 1 0 2
3968 662 4 0 5.463275461111101 4.45874261445603 21.583802389453673 0 -1 0
4205 701 4 0 2.599456914561344 5.478949992182628 26.420432665481982 0 2 -3
3969 662 4 0 6.862609612129157 3.89938838130386 21.614396691378314 0 -1 0
8944 1491 4 0 18.514405162839683 13.155265967788395 35.359408772346264 2 1 0
2102 351 4 0 7.960603647027087 5.94559773094788 26.055333122980986 1 0 2
6882 1147 3 0 1.1948244290664063 6.199018029526035 19.784674231490136 -5 -3 -2
6105 1018 4 0 18.43994596463708 5.155002135622129 28.372607596747347 2 3 1
247 42 3 0 11.094329195638819 13.346553073554979 31.66640317933423 4 0 -2
2105 351 4 0 6.209053747540111 9.376939957351546 25.781784233263327 1 0 2
5437 907 3 0 5.653410649688991 1.470520861132854 26.370377422354192 0 1 1
4080 680 3 0 0.9829788364510611 1.6657956103138842 19.74028696504303 0 1 2
5438 907 4 0 6.150021715074482 0.23095997386300746 27.080216200341837 0 1 1
3970 662 4 0 7.912359675637277 4.889267849344169 21.280587994334812 0 -1 0
7043 1174 4 0 2.0881563877385947 18.456322262031755 25.939502733987997 2 4 -2
3971 662 4 0 9.255515971354136 4.337963868386326 21.69101128779171 0 -1 0
6392 1066 4 0 4.784319747513936 8.373067183744038 22.009104905685938 0 0 2
6393 1066 4 0 6.022062157286108 8.972533119673574 21.365445346943286 0 0 2
6395 1066 4 0 8.549647180013684 9.663540857169513 21.667035921969212 0 0 2
6394 1066 4 0 7.338583471040416 8.851463285439062 22.199323244453073 0 0 2
6396 1066 3 0 9.832596770350012 9.248109991144515 22.367544339349124 0 0 2
3307 552 3 0 6.203354185140144 18.177170079450942 28.242127476966942 -2 2 -1
8142 1357 3 0 0.3043476194626313 18.354671659073496 36.72163499418813 3 1 2
4204 701 4 0 1.7056250499501675 6.672692234828519 26.096875790136888 0 2 -3
9710 1619 4 0 15.071473348459813 15.835217091032728 32.710056275658445 1 0 5
9057 1510 4 0 12.097236442599828 7.8801361315498974 19.00433915491433 1 -1 -1
2101 351 3 0 6.957232574477407 5.146757519725463 25.299349341819863 1 0 2
8301 1384 4 0 14.778688520758456 1.61902676601994 21.38638676572411 1 0 3
8300 1384 4 0 14.44779887033151 2.3629190902981416 22.698746170022577 1 0 3
7837 1307 3 0 12.260255601837402 4.782652415636794 25.23225077383436 -2 -1 0
7838 1307 4 0 13.130710678428922 6.002680607942915 24.99111111566543 -2 -1 0
3972 662 3 0 10.51974571294256 5.106340435627066 21.38964572164643 0 -1 0
1257 210 4 0 16.919216333696824 6.369146905805101 20.90422627150802 1 -1 1
1256 210 4 0 16.30899851985394 5.633317014145159 22.119654680871363 1 -1 1
1255 210 3 0 16.104538945057218 6.685048714632362 23.170727114136923 1 -1 1
1258 210 4 0 17.203697263523523 5.427257277129284 19.696928331461987 1 -1 1
6103 1018 3 0 16.273576251993692 6.38756137410656 27.669944354528518 2 3 1
9696 1616 3 0 14.447411360968948 2.412812042790435 27.0044621193266 0 1 -2
7839 1307 4 0 12.577392434228114 7.259403440135033 25.656964781402536 -2 -1 0
8904 1484 3 0 16.482203372790128 10.083009430376318 22.05370654840238 3 0 3
8299 1384 3 0 13.1875003034848 1.7165445185814103 23.173296311954086 1 0 3
9695 1616 4 0 15.226562781958544 1.725182767497858 28.10834958022265 0 1 -2
8302 1384 4 0 16.15370624987099 1.9073453250992627 20.823169353636622 1 0 3
6104 1018 4 0 17.519988965882433 5.579636331098812 27.204288369528875 2 3 1
107 18 4 0 1.4095498516933482 0.1868090409065801 34.75875730217653 -3 -2 0
11690 1942 2 0 17.758461122234753 1.2601518060332213 24.875947940583305 0 2 2
9056 1510 4 0 12.842911895552934 9.075394879478814 19.460192250123235 1 -1 -1
9711 1619 4 0 16.269819943027887 16.439478661589362 33.31965878290313 1 0 5
6391 1066 3 0 3.666693778453818 8.64608880285068 21.072340517489362 0 0 2
4017 670 4 0 5.849358977165935 18.036233738638618 19.57351699656604 -2 0 0
955 160 3 0 3.4005592091319827 13.71482231579911 19.813895497319848 -2 2 1
957 160 4 0 3.763712481371101 13.729550632675839 22.36228656480726 -2 2 1
958 160 4 0 4.665264095956471 14.981590918443144 22.50253291052851 -2 2 1
3311 552 4 0 6.790739734544907 13.258624957055588 29.063486682171277 -2 2 -1
2539 424 3 0 9.527921688739193 17.980352496877146 19.77557542355022 -4 2 2
4723 788 3 0 8.132875900692948 13.68356495512486 22.10759658224901 1 0 1
956 160 4 0 4.0949881688758625 13.088648158800329 20.980226407403222 -2 2 1
3310 552 4 0 6.310003274078784 14.279233556771834 28.083256296962276 -2 2 -1
3309 552 4 0 6.266349674371356 15.678710137011484 28.676625968861764 -2 2 -1
3308 552 4 0 5.945534855824027 16.775192272879337 27.69920353145677 -2 2 -1
1632 272 3 0 1.4476340097563722 11.489894960626746 24.351769337199766 -1 -1 2
9716 1620 4 0 0.7313911386316357 9.325774323053444 34.72962587714022 3 0 -2
9713 1619 4 0 17.50470140004577 18.500957217164576 33.70774424109049 1 0 5
9055 1510 3 0 11.99928258904646 10.36322730840526 19.198285181298413 1 -1 -1
108 18 3 0 2.710709572069753 0.8346856879526522 34.246274767691126 -3 -2 0
328 55 4 0 11.913149313642975 0.30759229504595403 18.914516260561374 1 5 4
959 160 4 0 4.637404305377407 15.666049488867774 23.914125164183098 -2 2 1
8303 1384 4 0 16.228577439646468 1.2458682059696036 19.46227742774946 1 0 3
960 160 3 0 5.679845238101789 16.676290937899683 24.07586798676769 -2 2 1
4728 788 3 0 9.886182672189044 11.228300792181912 25.627103186901902 1 0 1
7840 1307 4 0 13.595078151362136 8.391127522005691 25.402874899303814 -2 -1 0
7841 1307 4 0 13.427829175097244 9.728932814432135 26.181519354003353 -2 -1 0
8903 1484 4 0 16.98488650381393 9.865348632056422 20.67685735574907 3 0 3
2540 424 4 0 10.935383044441076 18.235992705917827 20.211764709984976 -4 2 2
4016 670 4 0 5.291791663012758 16.748909055644127 19.10926554932882 -2 0 0
3362 561 4 0 16.906870812168886 17.3856324619266 20.790451762627423 0 2 3
2970 495 3 0 13.762255236184457 13.052391254979966 21.147559596154377 2 -1 0
2969 495 4 0 14.163617039881444 14.510326321307193 21.108919936241566 2 -1 0
8968 1495 4 0 14.670663798620229 10.207520943697219 30.906863679512412 2 -3 -1
4163 694 4 0 5.622363300085162 15.380900615716552 36.76368655160919 2 3 -1
2968 495 4 0 14.452504291565697 15.095350080005094 22.475643008121647 2 -1 0
2967 495 4 0 15.349964940551232 14.208604310022244 23.33346326615748 2 -1 0
2966 495 4 0 15.837099199336848 15.067936074434117 24.50082839319054 2 -1 0
7512 1252 3 0 1.1255386231610698 16.986288277882398 19.03002709969087 3 0 -3
7842 1307 3 0 14.471401679018816 10.710506654355408 25.639207155349997 -2 -1 0
4160 694 4 0 7.59231382565753 13.262588933919709 35.6947793197767 2 3 -1
2373 396 4 0 12.945486444025093 8.12416621796949 36.94752559791709 1 -2 1
8902 1484 4 0 16.99253060816924 11.065282937257907 19.750231775777188 3 0 3
106 18 4 0 0.26257111587526777 0.656708455392081 33.876904887321786 -3 -2 0
9058 1510 4 0 13.066839378752778 6.714820624703275 19.115707155974313 1 -1 -1
3363 561 4 0 16.18060989765299 17.81035130281747 19.536991550703895 0 2 3
8900 1484 4 0 18.04434282058366 13.328558078141793 19.444548519810954 3 0 3
4725 788 4 0 10.335330133493057 13.30013085290684 23.25281931608065 1 0 1
4724 788 4 0 9.614722691079136 14.055491252374766 22.2233462569704 1 0 1
8304 1384 3 0 17.550422679072042 1.3750880200885562 18.797288213868615 1 0 3
4726 788 4 0 9.433168797634963 13.560740032805525 24.478020370384 1 0 1
4727 788 4 0 9.89194344319781 12.746100352240536 25.64876545116701 1 0 1
8901 1484 4 0 18.064169314471652 12.052470005412761 20.171493086145016 3 0 3
2376 396 3 0 12.289979045521218 10.736958859872036 34.241607291921376 1 -2 1
4206 701 3 0 3.728190302070573 5.94177172086741 27.28425010726419 0 2 -3
1201 201 3 0 9.785567671990131 17.7313621247114 23.801822867411033 0 0 0
2106 351 3 0 5.016615920814797 10.070418253310521 26.472502384212383 1 0 2
1439 240 4 0 7.539378944277778 2.272841921006624 33.11181356680296 0 -3 -2
1427 238 4 0 2.445033643433235 0.719826554417183 30.118361467856808 1 2 1
1440 240 3 0 6.793668910037474 1.7782286865923347 34.377674980050735 0 -3 -2
7445 1241 4 0 4.799049472283328 5.065038351974039 32.769152477913565 -1 3 -3
7444 1241 4 0 5.683142271111472 6.243873520004532 32.81707719726759 -1 3 -3
7443 1241 4 0 6.814478444991761 6.035205826948245 31.870361030759458 -1 3 -3
7442 1241 4 0 6.394133195221644 5.669991971614894 30.43908929552481 -1 3 -3
7441 1241 3 0 7.483812780115409 5.217444993736135 29.442484262037866 -1 3 -3
1923 321 4 0 9.146704233886084 7.122917771803416 35.44519135862886 -3 2 2
1924 321 4 0 9.489825604919591 5.710244766051737 34.90210047201592 -3 2 2
1438 240 4 0 7.7757141560939385 1.1832987367327021 32.026356980440944 0 -3 -2
7446 1241 3 0 3.6580354694759256 5.1056721159175655 33.817687769886426 -1 3 -3
1922 321 4 0 7.665256130632052 7.184377848913164 35.948688186473575 -3 2 2
1921 321 3 0 7.315561324974272 8.604211418889163 36.4891303924943 -3 2 2
1437 240 4 0 6.480608512823024 0.4635806068389953 31.60858442797315 0 -3 -2
9717 1620 4 0 1.863401485693492 9.192940210722027 33.669962911474855 3 0 -2
1428 238 3 0 1.9161215570797927 1.6031102664643697 29.007015606688388 1 2 1
1631 272 4 0 0.22024777360301093 11.598208482692309 23.481322710259047 -1 -1 2
2375 396 4 0 12.07461400567209 9.907608068154802 35.503887685262654 1 -2 1
11489 1913 2 0 10.15037776758537 0.12198443236977113 37.0798013547278 3 2 0
2183 364 4 0 10.998756875007988 5.586603931401507 29.82576471657727 -3 0 0
9694 1616 4 0 15.246722745777701 2.5420551220123038 29.409883432379594 0 1 -2
2184 364 3 0 12.176347941821726 5.010816043547529 29.077892603273717 -3 0 0
1823 304 4 0 10.807350445123678 0.5867819616496492 29.21481772579442 -2 -1 -3
1824 304 3 0 11.258388270430363 1.7045830956829389 28.201137224006313 -2 -1 -3
2965 495 3 0 16.684977697862863 14.41179290519585 25.55344302677481 2 -1 0
1925 321 4 0 10.961841702183632 5.536843546111447 34.489726633108006 -3 2 2
4159 694 3 0 8.838046550856241 12.618469156982886 35.329361584189044 2 3 -1
11490 1913 2 0 10.271535787233633 0.4734002801107726 35.730647288121716 3 2 0
8970 1495 3 0 14.809094138025769 12.622361189076281 30.142165011272336 2 -3 -1
7183 1198 3 0 11.666832717872879 15.106099071430226 37.05690299867976 3 4 0
8965 1495 3 0 15.322009308263995 6.653109086697664 32.24400279420025 2 -3 -1
8966 1495 4 0 14.455559758996841 7.867418900675957 31.8826870743893 2 -3 -1
1822 304 4 0 12.00939525158238 0.1598440223682184 30.08641913998749 -2 -1 -3
9691 1616 3 0 15.00125365138657 2.826283952679332 32.53648418709554 0 1 -2
9693 1616 4 0 16.105722977566373 1.8325935366674515 30.438674927334567 0 1 -2
9692 1616 4 0 16.19674605091828 2.6857813737598413 31.655615818056415 0 1 -2
2181 364 4 0 10.074806649893283 7.657332989538867 30.976096563938963 -3 0 0
1926 321 3 0 11.31752651383852 4.149796029280072 33.93791115308701 -3 2 2
2182 364 4 0 11.070270536918652 7.097396662212722 29.9107299030801 -3 0 0
8967 1495 4 0 15.26859736104667 9.136123980400999 31.727526052342554 2 -3 -1
9712 1619 4 0 16.533727910104048 17.821792433015716 32.77397789310784 1 0 5
2374 396 4 0 13.132104562609753 8.876166620343483 35.667173020678 1 -2 1
8942 1491 4 0 16.789806121499243 11.248581636906216 35.812650396489744 2 1 0
8941 1491 3 0 17.865782020439102 10.207857639491117 36.25581089049352 2 1 0
2070 345 3 0 1.5438511981094867 8.409235955741654 29.47188880504059 3 -1 3
3312 552 3 0 5.744692874588733 13.080956899497446 30.251804177654776 -2 2 -1
8140 1357 4 0 0.7797881079406659 17.21543482486672 34.502967083367054 3 1 2
2067 345 4 0 2.470310398759054 12.118758528418663 28.969170566823813 3 -1 3
9718 1620 4 0 3.0797046553874208 9.972063582578574 34.02088365698564 3 0 -2
9719 1620 4 0 4.21325963050358 9.715359396503795 33.01485782305258 3 0 -2
9720 1620 3 0 5.506723898610602 10.258264840366794 33.56903961468552 3 0 -2
2180 364 4 0 10.17276769554454 9.168511951625332 31.135216444398893 -3 0 0
8139 1357 4 0 1.0592706900061526 15.930036513607662 33.83551687397039 3 1 2
8969 1495 4 0 15.441174371541827 11.539712464581921 30.95286786198667 2 -3 -1
9709 1619 3 0 14.754755622138205 14.60313733509392 33.51912852129375 1 0 5
8138 1357 4 0 2.5303988505052044 15.802369288469443 33.77886983690623 3 1 2
2066 345 4 0 1.9591450913492097 13.133969615969503 27.952178656468504 3 -1 3
2179 364 3 0 9.26441398576117 9.765657289653758 32.225335605175694 -3 0 0
8141 1357 4 0 0.6367374284343027 17.036347222042263 36.0569754374477 3 1 2
250 42 4 0 9.83810249692245 16.941309379410924 32.087965004679155 4 0 -2
251 42 4 0 9.875487369215543 18.110091728005038 33.00804721114139 4 0 -2
8137 1357 3 0 3.1000096639336245 14.54911234571933 33.20883401221873 3 1 2
2065 345 3 0 2.663442474267497 14.481225825501602 28.002908000820145 3 -1 3
5893 983 3 0 13.491965558146005 15.7818290256489 28.434881254513595 0 1 -1
2068 345 4 0 1.9030136825584905 10.733662258694293 28.614945896266082 3 -1 3
2069 345 4 0 2.319891163741249 9.69039253371785 29.675785695807974 3 -1 3
8943 1491 4 0 17.30457947291122 12.327556150984481 34.82049838266231 2 1 0
249 42 4 0 10.533173256008814 15.587704439121385 32.46830886840979 4 0 -2
5895 983 4 0 13.644191676023727 18.27779048346296 28.692022395365324 0 1 -1
5894 983 4 0 14.386097772718594 17.035714768297396 28.329390423424403 0 1 -1
248 42 4 0 10.44432543813268 14.623557598234923 31.33492520351318 4 0 -2
7184 1198 4 0 13.109645017245183 14.540293573797694 37.07480432606088 3 4 0
5617 937 3 0 1.856597031538629 5.756909170175062 36.9722540094462 1 1 -1
4161 694 4 0 7.591875716249209 13.88711611940782 37.092700545048096 2 3 -1