LAMMPS data file
# Generated by Playmol on 14-Mar-2025 at 17:44:10

2 atom types
1 bond types
1 angle types
1 dihedral types

1060 atoms
60 bonds
60 angles
60 dihedrals

-25.0000000 25.0000000 xlo xhi
-25.0000000 25.0000000 ylo yhi
-25.0000000 25.0000000 zlo zhi

Masses

1 13.019 # CH
2 44.010 # co2

# Elements: N? Sc?

Pair Coeffs # lj/cut

1 0.1100 3.7500 # CH
2 0.4692 3.720 # co2

Bond Coeffs # harmonic

1 469.0 1.400 # CH CH

Angle Coeffs # harmonic

1 85.0 120.0 # CH CH CH

Dihedral Coeffs # opls

1 0.000 7.25 0.000 0.00 # CH CH CH CH

Atoms

1 1 2 0.0 7.35325718 4.24592781 9.05250454 # CO2
2 2 2 0.0 -3.23005605 19.5900574 -5.75794506 # CO2
3 3 2 0.0 2.26119494 -6.62206793 9.85730839 # CO2
4 4 2 0.0 0.650596976 1.99156201 4.25116205 # CO2
5 5 2 0.0 -15.2888107 -2.32248306 9.71473694 # CO2
6 6 2 0.0 6.59662819 17.8369694 16.4457703 # CO2
7 7 2 0.0 19.6902866 23.6311817 4.76566076 # CO2
8 8 2 0.0 6.05476904 -20.6590137 -7.53745699 # CO2
9 9 2 0.0 -8.75341702 12.5312662 -16.2136765 # CO2
10 10 2 0.0 23.7486877 -8.36284733 -20.3077888 # CO2
11 11 2 0.0 -16.6175537 19.9780693 -23.1045094 # CO2
12 12 2 0.0 -16.3903370 3.94059300 -7.81831503 # CO2
13 13 2 0.0 -12.5698700 13.1578083 -10.4980612 # CO2
14 14 2 0.0 -5.33595181 -21.8376064 11.6477718 # CO2
15 15 2 0.0 -6.00775099 -19.4883652 -12.9065418 # CO2
16 16 2 0.0 -6.06126595 3.64451504 2.48742700 # CO2
17 17 2 0.0 4.10472393 -8.39950180 -4.92194223 # CO2
18 18 2 0.0 -17.0538273 12.7724400 13.9905357 # CO2
19 19 2 0.0 8.48365116 16.4362164 12.7755547 # CO2
20 20 2 0.0 15.6934004 -12.0018673 12.6777334 # CO2
21 21 2 0.0 7.67566204 2.39513803 -20.6276951 # CO2
22 22 2 0.0 21.5622826 -1.72176504 -4.98493290 # CO2
23 23 2 0.0 -9.07991314 -23.6952171 18.6688156 # CO2
24 24 2 0.0 -17.1699066 22.5070934 6.05832005 # CO2
25 25 2 0.0 6.89334011 -21.9754715 14.7646179 # CO2
26 26 2 0.0 1.90325701 5.22357988 -17.4244671 # CO2
27 27 2 0.0 -20.9133224 -1.91624200 -22.0568161 # CO2
28 28 2 0.0 -16.2556572 18.9080925 17.4578266 # CO2
29 29 2 0.0 9.54327011 -17.4508419 20.2698345 # CO2
30 30 2 0.0 -17.6966476 -4.73696423 -7.75967789 # CO2
31 31 2 0.0 20.8582020 12.9413900 6.32000780 # CO2
32 32 2 0.0 15.5306644 -7.32870027E-02 -23.3209991 # CO2
33 33 2 0.0 -9.15237713 -7.54441023 7.42796087 # CO2
34 34 2 0.0 -3.22228408 14.7602997 22.5306473 # CO2
35 35 2 0.0 13.4897766 22.8080635 -7.32247877 # CO2
36 36 2 0.0 -18.0685902 -22.3013344 -3.65410590 # CO2
37 37 2 0.0 -8.54891205 18.7703667 9.50163746 # CO2
38 38 2 0.0 -3.20327592 12.4909086 13.3709202 # CO2
39 39 2 0.0 -19.6371384 -4.14032984 12.5880194 # CO2
40 40 2 0.0 8.07495975 -16.5668907 -3.00912690 # CO2
41 41 2 0.0 -16.6225662 -21.8014507 -11.3148651 # CO2
42 42 2 0.0 -11.6700277 16.7788372 -11.3443346 # CO2
43 43 2 0.0 17.5048161 -2.33069992 23.5974045 # CO2
44 44 2 0.0 -18.1376476 -12.2318726 -22.1979141 # CO2
45 45 2 0.0 -13.1268978 10.8393688 10.5334921 # CO2
46 46 2 0.0 4.38140488 1.34427595 -1.59290695 # CO2
47 47 2 0.0 3.11683893 16.3042011 2.43284202 # CO2
48 48 2 0.0 -13.9235363 1.05154705 10.1015387 # CO2
49 49 2 0.0 -10.9000015 -1.66904497 -12.7812309 # CO2
50 50 2 0.0 21.2813759 -8.67537594 9.82600784 # CO2
51 51 2 0.0 -11.3153753 -10.9646006 8.09183598 # CO2
52 52 2 0.0 -22.3084259 10.7877855 -22.2273140 # CO2
53 53 2 0.0 -19.9812775 9.11638165 -9.52301693 # CO2
54 54 2 0.0 -8.52952099 0.936884999 15.2955246 # CO2
55 55 2 0.0 -1.83644998 -1.00226605 -17.8700333 # CO2
56 56 2 0.0 11.0990591 -1.38601398 9.56941509 # CO2
57 57 2 0.0 22.5666676 22.3041801 2.30953407 # CO2
58 58 2 0.0 11.2297297 2.12372088 2.71519303 # CO2
59 59 2 0.0 -14.9846201 -2.18454695 -1.98499405 # CO2
60 60 2 0.0 -22.0019131 -21.6844330 -21.7496357 # CO2
61 61 2 0.0 6.27594805 -2.18724799 -2.16962099 # CO2
62 62 2 0.0 0.720111012 12.5581923 15.6240902 # CO2
63 63 2 0.0 22.4045372 23.7227573 13.2088060 # CO2
64 64 2 0.0 -18.0108528 -8.03148270 -21.9894447 # CO2
65 65 2 0.0 17.8264256 7.50429916 6.14683914 # CO2
66 66 2 0.0 -18.8164597 -1.48683000 -12.6465912 # CO2
67 67 2 0.0 -1.23621905 -10.4331360 -22.0797672 # CO2
68 68 2 0.0 17.1925697 -5.48709822 -9.25992489 # CO2
69 69 2 0.0 -13.9328804 -13.5625010 18.0189838 # CO2
70 70 2 0.0 3.66239995E-02 -17.2410660 5.07308817 # CO2
71 71 2 0.0 -12.2157068 -23.4297371 -1.07357800 # CO2
72 72 2 0.0 -15.7377663 14.8772793 12.7658949 # CO2
73 73 2 0.0 21.3943615 9.48904133 -19.8116512 # CO2
74 74 2 0.0 -20.6221256 -3.54627991 -19.6501122 # CO2
75 75 2 0.0 -14.1658268 20.7498264 -18.2401924 # CO2
76 76 2 0.0 12.2738733 18.3686085 -11.5177746 # CO2
77 77 2 0.0 -6.10786009 -19.2337952 8.94661713 # CO2
78 78 2 0.0 -1.52679706 23.1417198 -0.355509996 # CO2
79 79 2 0.0 3.59019709 -0.302727997 -23.4500370 # CO2
80 80 2 0.0 14.7942877 -10.4237938 -7.33884192 # CO2
81 81 2 0.0 16.5174294 15.0020905 10.2055922 # CO2
82 82 2 0.0 23.7422314 3.10319710 -22.2211742 # CO2
83 83 2 0.0 -17.9339027 -1.64525795 12.8741541 # CO2
84 84 2 0.0 -23.0956459 22.3176022 -0.577338994 # CO2
85 85 2 0.0 -7.28080893 14.4817934 -2.29480600 # CO2
86 86 2 0.0 17.6691189 3.12466598 15.4508219 # CO2
87 87 2 0.0 -2.18678093 9.17740440 -19.6119308 # CO2
88 88 2 0.0 -5.25844908 19.0849628 12.9609947 # CO2
89 89 2 0.0 -0.927924991 -7.37729788 -10.0173702 # CO2
90 90 2 0.0 5.36530209 11.1345615 -19.8009396 # CO2
91 91 2 0.0 7.77515697 -19.6575470 4.05128098 # CO2
92 92 2 0.0 11.4578304 -7.33979511 13.7160387 # CO2
93 93 2 0.0 -4.17176485 -2.94511390 16.3871918 # CO2
94 94 2 0.0 11.4669304 -22.4331512 23.2168198 # CO2
95 95 2 0.0 3.73485994 13.1369591 -18.5931301 # CO2
96 96 2 0.0 13.5886707 -9.78789330 18.3785934 # CO2
97 97 2 0.0 13.8587704 -6.68536711 -0.893953979 # CO2
98 98 2 0.0 -16.2162895 22.3223763 10.8900108 # CO2
99 99 2 0.0 4.43454313 -23.2005825 -5.11953688 # CO2
100 100 2 0.0 11.2137003 19.2446632 17.8664799 # CO2
101 101 2 0.0 -17.8779659 -7.22304678 -10.2368469 # CO2
102 102 2 0.0 17.4131451 -20.5139313 4.42552900 # CO2
103 103 2 0.0 -6.01842880 -13.4376860 19.1348286 # CO2
104 104 2 0.0 -4.80808401 -2.86460304 4.43588114 # CO2
105 105 2 0.0 -11.9494734 13.8978643 -20.3485355 # CO2
106 106 2 0.0 14.1999674 -1.05820894 10.3654232 # CO2
107 107 2 0.0 21.2056732 22.6505756 15.5222759 # CO2
108 108 2 0.0 -12.8697662 -4.17810488 -10.4136238 # CO2
109 109 2 0.0 -0.135474995 14.9350967 20.3232346 # CO2
110 110 2 0.0 21.8952999 12.9995012 22.8235893 # CO2
111 111 2 0.0 -8.70406246 -2.66860890 -9.57538509 # CO2
112 112 2 0.0 -4.32511282 2.97962308 14.9826012 # CO2
113 113 2 0.0 -21.2935638 -13.2147942 -6.23326302 # CO2
114 114 2 0.0 -10.4090147 14.8127642 -8.27183914 # CO2
115 115 2 0.0 -8.82601643 -10.3456345 -18.9570179 # CO2
116 116 2 0.0 -4.31891680 -9.30168056 18.2525253 # CO2
117 117 2 0.0 -23.5745773 15.0458708 4.05618382 # CO2
118 118 2 0.0 -16.1868649 -10.2214308 21.6768036 # CO2
119 119 2 0.0 16.7373638 -21.9408169 -1.47243798 # CO2
120 120 2 0.0 -17.4320488 -22.2743130 -20.8653564 # CO2
121 121 2 0.0 -7.67275810 -0.879512012 9.29883003 # CO2
122 122 2 0.0 -7.78648520 1.22080898 -8.67751122 # CO2
123 123 2 0.0 -16.7399807 4.89000797 0.472395986 # CO2
124 124 2 0.0 -7.56299686 -19.0964508 -23.3102188 # CO2
125 125 2 0.0 2.34734297 -3.05063200 -7.61346483 # CO2
126 126 2 0.0 17.7823772 -8.74851608 -21.7141457 # CO2
127 127 2 0.0 -13.1477222 -8.16728210 8.99537277 # CO2
128 128 2 0.0 -11.3988590 -6.59865713 -19.4103966 # CO2
129 129 2 0.0 2.03865504 -17.6372318 -14.7795801 # CO2
130 130 2 0.0 -5.10394621 17.1362419 19.9043694 # CO2
131 131 2 0.0 3.33847308 -10.6427937 -0.670337975 # CO2
132 132 2 0.0 -11.2069473 -5.36685181 -1.25197303 # CO2
133 133 2 0.0 -8.16226673 -22.3368740 6.79843092 # CO2
134 134 2 0.0 2.16386199 -13.2065973 9.00286007 # CO2
135 135 2 0.0 18.6566219 -4.09218407 -1.22882199 # CO2
136 136 2 0.0 -10.1903410 -6.74844217 2.27014303 # CO2
137 137 2 0.0 19.4046364 22.0531349 17.5145435 # CO2
138 138 2 0.0 0.349034995 20.0424118 21.7113400 # CO2
139 139 2 0.0 15.2809610 -1.57065201 -3.00502205 # CO2
140 140 2 0.0 -7.05234623 3.55653000 22.0484486 # CO2
141 141 2 0.0 2.37926412 5.91901588 -12.1432419 # CO2
142 142 2 0.0 -5.41173887 -17.1405125 20.7189274 # CO2
143 143 2 0.0 2.40214896 -22.4852085 0.464387000 # CO2
144 144 2 0.0 19.8183041 13.5839548 18.3887367 # CO2
145 145 2 0.0 -9.00008774 4.69219685 4.34664679 # CO2
146 146 2 0.0 -2.14356709 -2.46556091 20.0049191 # CO2
147 147 2 0.0 -23.7275391 4.20156479 14.7115641 # CO2
148 148 2 0.0 -4.89816189 12.5714912 8.44252491 # CO2
149 149 2 0.0 -17.3076782 8.03923512 16.2536087 # CO2
150 150 2 0.0 -10.6011572 -16.2748890 -10.3786221 # CO2
151 151 2 0.0 7.96776676 20.4312782 1.28781903 # CO2
152 152 2 0.0 18.6880436 7.80118799 -1.28899598 # CO2
153 153 2 0.0 -22.6846027 10.5831928 -4.25367880 # CO2
154 154 2 0.0 4.73851204 -15.1186409 -6.55277014 # CO2
155 155 2 0.0 -7.93156481 -19.5383968 6.28689003 # CO2
156 156 2 0.0 0.200635001 -2.14948106 5.50145721 # CO2
157 157 2 0.0 -21.2456512 -23.0093460 -16.5593185 # CO2
158 158 2 0.0 14.5786133 14.1212969 8.09583569 # CO2
159 159 2 0.0 18.4851933 -23.3054867 -5.45000315 # CO2
160 160 2 0.0 9.26125526 10.9023638 -9.58829784 # CO2
161 161 2 0.0 -9.38832092 11.7951460 -8.82472229 # CO2
162 162 2 0.0 23.6962013 -20.4568481 12.1693506 # CO2
163 163 2 0.0 10.0040474 -10.3742580 -6.37596416 # CO2
164 164 2 0.0 5.52695417 19.1078396 -21.5217667 # CO2
165 165 2 0.0 -13.9676943 -8.59339142 -4.37536001 # CO2
166 166 2 0.0 -22.5481091 10.6050835 6.77145100 # CO2
167 167 2 0.0 9.22105217 19.4984245 -22.5261307 # CO2
168 168 2 0.0 20.9766064 3.09353399 -3.71244097 # CO2
169 169 2 0.0 -11.3642368 3.45208812 -15.8973331 # CO2
170 170 2 0.0 -16.8106022 18.6467819 2.38545799 # CO2
171 171 2 0.0 9.69042015 11.1021214 -13.4766045 # CO2
172 172 2 0.0 15.9784784 2.92444301 3.10542703 # CO2
173 173 2 0.0 -21.7073689 0.582198024 3.87712193 # CO2
174 174 2 0.0 7.64769697 4.52868700 22.0527916 # CO2
175 175 2 0.0 -22.9206028 23.4992924 -23.7124157 # CO2
176 176 2 0.0 -18.6831474 -19.3592815 -13.3703833 # CO2
177 177 2 0.0 8.76165104 -23.5031223 -7.05277300 # CO2
178 178 2 0.0 -5.72533989 1.78203201 8.60582924 # CO2
179 179 2 0.0 12.7404833 -12.8553934 -22.5749912 # CO2
180 180 2 0.0 -2.32815289 20.9461231 -21.6450882 # CO2
181 181 2 0.0 -0.210897997 -2.40790009 -14.0666113 # CO2
182 182 2 0.0 -14.6646242 -10.9143238 2.75760889 # CO2
183 183 2 0.0 -13.6656599 15.0676966 5.49136209 # CO2
184 184 2 0.0 5.62464809 15.3840542 -3.40310597 # CO2
185 185 2 0.0 2.94589400 14.6554928 -10.1741352 # CO2
186 186 2 0.0 20.3286610 4.59498882 17.1586933 # CO2
187 187 2 0.0 0.161385998 -7.78867197 -1.80710900 # CO2
188 188 2 0.0 15.6240950 17.7634220 1.64589994E-02 # CO2
189 189 2 0.0 -3.57762289 -11.4796400 22.5742836 # CO2
190 190 2 0.0 -7.47677279 1.26185298 -1.08213603 # CO2
191 191 2 0.0 1.66451204 -13.1940928 -19.6886692 # CO2
192 192 2 0.0 4.75890684 -7.78968811 10.9598227 # CO2
193 193 2 0.0 18.5606995 16.5499439 1.41519701 # CO2
194 194 2 0.0 0.801124990 10.0446253 23.0711327 # CO2
195 195 2 0.0 12.9008293 5.24340677 -7.22380304 # CO2
196 196 2 0.0 -8.81507397 -7.56774902 -18.4787731 # CO2
197 197 2 0.0 16.0078697 -18.2107105 -17.0277042 # CO2
198 198 2 0.0 -16.6298008 -10.0345173 -9.22838497 # CO2
199 199 2 0.0 0.909138978 1.10596895 -15.5863323 # CO2
200 200 2 0.0 0.173208997 9.08405876 16.6142693 # CO2
201 201 2 0.0 14.5464611 16.9836597 10.2236300 # CO2
202 202 2 0.0 12.2586870 -17.8002415 21.0419502 # CO2
203 203 2 0.0 -13.3727655 -16.4257145 16.7574539 # CO2
204 204 2 0.0 -1.43725300 2.68060398 21.8748226 # CO2
205 205 2 0.0 0.217831999 9.55395794 -9.86565208 # CO2
206 206 2 0.0 -0.948585987 -0.919367015 -5.81420803 # CO2
207 207 2 0.0 21.2571373 -19.1776295 -12.7748423 # CO2
208 208 2 0.0 -4.75515318 -16.6969547 -23.6735249 # CO2
209 209 2 0.0 23.0441437 -5.88418388 5.59649897 # CO2
210 210 2 0.0 -4.14579010 -4.75537682 19.4696980 # CO2
211 211 2 0.0 10.3965530 10.9202433 -17.0067005 # CO2
212 212 2 0.0 5.77816010 -11.4624147 14.0656319 # CO2
213 213 2 0.0 6.87650013 5.34414291 -9.32761097 # CO2
214 214 2 0.0 22.9647617 -6.53479910 13.8955278 # CO2
215 215 2 0.0 -5.61336613 -15.0542841 -5.66414881 # CO2
216 216 2 0.0 0.957031012 -19.0901318 16.1350727 # CO2
217 217 2 0.0 -13.2484474 -23.5908413 15.4918966 # CO2
218 218 2 0.0 -8.13783073 4.93100691 7.37148190 # CO2
219 219 2 0.0 9.50764561 0.565702975 20.0214691 # CO2
220 220 2 0.0 12.2460527 0.394737989 5.73535204 # CO2
221 221 2 0.0 2.89244008 8.88110065 -14.9821787 # CO2
222 222 2 0.0 8.85254478 9.49761200 -7.19521809 # CO2
223 223 2 0.0 -19.1596661 0.804202020 10.5432987 # CO2
224 224 2 0.0 -22.3408680 18.0630932 -5.54048014 # CO2
225 225 2 0.0 21.1867809 3.19881392 14.5279493 # CO2
226 226 2 0.0 -7.67290211 16.8374863 15.7509098 # CO2
227 227 2 0.0 7.74198294 14.0510254 -5.33130980 # CO2
228 228 2 0.0 3.45336890 -4.56444216 6.55499995E-02 # CO2
229 229 2 0.0 -10.4922047 -13.5634441 13.4288321 # CO2
230 230 2 0.0 12.9477720 -5.79957819 6.76662683 # CO2
231 231 2 0.0 -18.0282726 14.4100418 18.1889687 # CO2
232 232 2 0.0 8.74119568 8.58426762 -14.1765776 # CO2
233 233 2 0.0 -8.56042194 -21.0052547 10.8298845 # CO2
234 234 2 0.0 3.35960388 23.2504158 -6.59545612 # CO2
235 235 2 0.0 -14.8887243 -14.3751650 4.05506611 # CO2
236 236 2 0.0 1.05685699 19.2047081 -19.5114212 # CO2
237 237 2 0.0 3.54735398 -19.0696888 -8.36274910 # CO2
238 238 2 0.0 10.4287548 16.6176815 -7.10539967E-02 # CO2
239 239 2 0.0 -22.4094219 -2.27077699 18.1329441 # CO2
240 240 2 0.0 -10.1814489 -6.75296879 -8.41773129 # CO2
241 241 2 0.0 3.95145392 -21.2675171 21.2082672 # CO2
242 242 2 0.0 -11.3243952 7.51951408 -20.1989555 # CO2
243 243 2 0.0 -13.5764771 5.35930109 21.5999069 # CO2
244 244 2 0.0 -1.03753901 -16.2516804 10.6558542 # CO2
245 245 2 0.0 -14.9084749 2.97071505 -5.18833113 # CO2
246 246 2 0.0 23.0173016 -3.79387093 -3.14176607 # CO2
247 247 2 0.0 2.79150391 10.5035782 -1.32628500 # CO2
248 248 2 0.0 0.659080982 -22.5822411 2.91887593 # CO2
249 249 2 0.0 -5.99827719 12.9033775 -0.115511000 # CO2
250 250 2 0.0 11.1506453 -19.7101517 -2.85620499 # CO2
251 251 2 0.0 -13.5869598 17.6088924 20.8796139 # CO2
252 252 2 0.0 19.7140617 -18.6788101 -16.4654446 # CO2
253 253 2 0.0 21.4793491 -5.92705297 11.2110767 # CO2
254 254 2 0.0 -11.0482121 -14.6343117 18.1963387 # CO2
255 255 2 0.0 -14.0908833 -13.4313259 -20.0319672 # CO2
256 256 2 0.0 -22.0635548 -18.6966343 -21.0569000 # CO2
257 257 2 0.0 -12.8755827 -5.93761587 -8.28523827 # CO2
258 258 2 0.0 -21.1271591 1.95928895 -4.15179491 # CO2
259 259 2 0.0 17.6734791 5.39104319 -3.47054696 # CO2
260 260 2 0.0 22.0447063 -13.5914040 13.1270342 # CO2
261 261 2 0.0 10.2004309 19.0119629 -9.27292919 # CO2
262 262 2 0.0 4.31276083 -3.50507498 4.33032799 # CO2
263 263 2 0.0 23.2733135 16.3423672 -9.45977020 # CO2
264 264 2 0.0 6.72459221 -16.6550007 12.2887926 # CO2
265 265 2 0.0 21.1680546 -8.10785389 -19.0247612 # CO2
266 266 2 0.0 -14.8925734 10.8013477 -2.41065788 # CO2
267 267 2 0.0 15.2656088 -19.8085766 -5.63971376 # CO2
268 268 2 0.0 -4.35783195 -8.48018646 5.92770004 # CO2
269 269 2 0.0 16.3979530 -0.290091008 -19.0771885 # CO2
270 270 2 0.0 22.8673286 -7.78642988 1.87478304 # CO2
271 271 2 0.0 5.33173084 22.8610210 -18.2466755 # CO2
272 272 2 0.0 -9.24684238 -14.6117296 -19.6701584 # CO2
273 273 2 0.0 -8.11015511 10.9540958 -5.91502285 # CO2
274 274 2 0.0 -16.4623432 -18.3326283 8.07843113 # CO2
275 275 2 0.0 4.48047781 -13.8117762 19.3606472 # CO2
276 276 2 0.0 -13.3891373 -16.5343018 -20.3498764 # CO2
277 277 2 0.0 -7.19285583 -3.36550307 8.13167381 # CO2
278 278 2 0.0 5.84424591 -18.4153309 6.61934423 # CO2
279 279 2 0.0 6.92085981 19.7822018 -3.02526999 # CO2
280 280 2 0.0 -15.1561184 -4.19163704 -16.4200478 # CO2
281 281 2 0.0 12.7924690 20.7088375 22.8391228 # CO2
282 282 2 0.0 1.00689995 1.93179202 -7.90943193 # CO2
283 283 2 0.0 14.2706947 7.86509991 -9.54345131 # CO2
284 284 2 0.0 2.41782498 -15.6736784 11.8304939 # CO2
285 285 2 0.0 2.21959305 -8.66999817 13.5886116 # CO2
286 286 2 0.0 -11.7249575 0.470292002 -1.19203901 # CO2
287 287 2 0.0 -17.3479233 -3.55514002 -14.8832226 # CO2
288 288 2 0.0 -10.5071993 8.66310310 -11.9876757 # CO2
289 289 2 0.0 -13.9345436 1.85776997 6.44624090 # CO2
290 290 2 0.0 -15.1271505 -7.68503714 -9.82833672 # CO2
291 291 2 0.0 -15.7449141 3.44819498 3.91231894 # CO2
292 292 2 0.0 -21.8644714 -5.35747099 7.70803022 # CO2
293 293 2 0.0 -15.7997952 23.4333496 -5.25180578 # CO2
294 294 2 0.0 1.87275696 2.10240507 -23.7479725 # CO2
295 295 2 0.0 10.8571558 6.88262987 -17.4706936 # CO2
296 296 2 0.0 2.31950307 5.49806118 3.77375698 # CO2
297 297 2 0.0 -7.51840687 23.5451488 8.25753212 # CO2
298 298 2 0.0 23.5840111 -15.5178204 -2.28003502 # CO2
299 299 2 0.0 -4.04864883 -7.44884777 11.5758419 # CO2
300 300 2 0.0 1.83908403 -6.13658285 -16.1783161 # CO2
301 301 2 0.0 -15.9343100 -17.2712955 3.88352990 # CO2
302 302 2 0.0 -12.4934196 -22.5366917 -4.89990187 # CO2
303 303 2 0.0 16.0613384 20.9741116 -10.3222895 # CO2
304 304 2 0.0 16.8635750 -23.0898266 8.80021477 # CO2
305 305 2 0.0 1.61998606 22.8177509 -11.0055151 # CO2
306 306 2 0.0 -9.63006878 -19.4086781 14.3540783 # CO2
307 307 2 0.0 18.5583076 14.3222723 -10.9312887 # CO2
308 308 2 0.0 -8.13929653 -9.63511372 -9.93609333 # CO2
309 309 2 0.0 -8.01025963 -17.1471004 14.1296473 # CO2
310 310 2 0.0 -13.6546354 -9.88810825 -21.1555996 # CO2
311 311 2 0.0 -18.0394840 -16.8694859 -2.92023993 # CO2
312 312 2 0.0 22.3668728 21.4773540 -12.3494024 # CO2
313 313 2 0.0 17.9028950 10.4161062 8.00778675 # CO2
314 314 2 0.0 4.99165916 -10.5501719 -8.47215271 # CO2
315 315 2 0.0 -10.6139536 16.5281067 -23.1176033 # CO2
316 316 2 0.0 -6.26052094 10.3941889 -13.6190119 # CO2
317 317 2 0.0 12.8831167 1.90547001 -9.25908089 # CO2
318 318 2 0.0 -3.32940698 22.2416897 16.5506992 # CO2
319 319 2 0.0 10.3115482 -0.997253001 0.799090028 # CO2
320 320 2 0.0 -4.09310013E-02 23.3216667 -15.6772184 # CO2
321 321 2 0.0 -15.1269026 13.9243803 10.0044661 # CO2
322 322 2 0.0 -4.14483881 -13.3233347 -18.7116623 # CO2
323 323 2 0.0 -9.70336914 -2.15675211 18.6514130 # CO2
324 324 2 0.0 -14.5544777 -20.7916489 15.2615843 # CO2
325 325 2 0.0 13.6514406 -11.6363459 7.71150684 # CO2
326 326 2 0.0 3.68894601 -17.2687664 -11.1235199 # CO2
327 327 2 0.0 21.4938374 -8.67177010 23.7421322 # CO2
328 328 2 0.0 -19.9197884 -8.56386948 13.2374573 # CO2
329 329 2 0.0 6.75075388 -14.4376278 -11.4901857 # CO2
330 330 2 0.0 12.0458288 -10.0873222 23.7403202 # CO2
331 331 2 0.0 22.3811054 -10.6991167 -2.25987601 # CO2
332 332 2 0.0 -19.8054733 -22.2297440 16.6054993 # CO2
333 333 2 0.0 -4.95992708 -15.7792692 -8.65765476 # CO2
334 334 2 0.0 -11.5741920 -16.5169029 -14.4734488 # CO2
335 335 2 0.0 4.56877899 13.1377478 22.9727478 # CO2
336 336 2 0.0 9.04395962 -21.7177715 -10.7369070 # CO2
337 337 2 0.0 6.18147993 17.0729332 22.6864681 # CO2
338 338 2 0.0 16.0090637 21.5871582 -0.601648986 # CO2
339 339 2 0.0 -2.65546107 10.8735380 -17.0913124 # CO2
340 340 2 0.0 -4.92933702 -1.52763104 9.51018810 # CO2
341 341 2 0.0 7.30460882 16.9476948 -5.21602583 # CO2
342 342 2 0.0 -2.91332698 19.5470352 16.0091324 # CO2
343 343 2 0.0 -12.3644733 -21.8280716 13.5333891 # CO2
344 344 2 0.0 9.27460575 17.4539318 20.9654579 # CO2
345 345 2 0.0 -17.0893936 6.73286676 -2.06925011 # CO2
346 346 2 0.0 -13.1523218 -22.6447163 -22.4239674 # CO2
347 347 2 0.0 -3.12659693 -2.66150689 -21.0250454 # CO2
348 348 2 0.0 22.3699589 14.5186234 13.4970093 # CO2
349 349 2 0.0 -14.3887329 -23.5977974 -9.84689426 # CO2
350 350 2 0.0 13.7798615 10.6864948 -20.0191441 # CO2
351 351 2 0.0 22.0463142 -21.6572742 -0.377737999 # CO2
352 352 2 0.0 -9.33870506 -9.57984924 15.1984425 # CO2
353 353 2 0.0 -12.8909044 12.6871834 7.25047684 # CO2
354 354 2 0.0 -16.8269749 -0.809305012 -19.4077721 # CO2
355 355 2 0.0 -6.81654501 23.7202549 -20.0185776 # CO2
356 356 2 0.0 -11.8579979 -19.2880268 8.08647823 # CO2
357 357 2 0.0 -6.64374018 13.8438730 -17.7916985 # CO2
358 358 2 0.0 -20.6912251 -14.9188957 -2.91260695 # CO2
359 359 2 0.0 -10.9327707 19.7093563 4.54879713 # CO2
360 360 2 0.0 13.2340183 -23.3926868 11.3068380 # CO2
361 361 2 0.0 -23.4002266 6.45625114 20.9059658 # CO2
362 362 2 0.0 -5.24356794 -9.97443676 9.72425079 # CO2
363 363 2 0.0 10.4712782 -22.4423084 -2.13995099 # CO2
364 364 2 0.0 23.6579647 15.7969332 9.18369198 # CO2
365 365 2 0.0 15.4320335 3.31391001 -18.5741711 # CO2
366 366 2 0.0 -3.30567288 -3.35494804 -7.11804819 # CO2
367 367 2 0.0 18.9641666 19.9636841 -12.7860317 # CO2
368 368 2 0.0 19.9940796 -17.8661308 6.82652092 # CO2
369 369 2 0.0 -20.3353977 13.3582458 -6.19230509 # CO2
370 370 2 0.0 -0.521802008 -0.689261973 22.2641582 # CO2
371 371 2 0.0 -6.91395807 14.5429020 19.5675659 # CO2
372 372 2 0.0 -23.2530937 -19.0994625 14.0436859 # CO2
373 373 2 0.0 5.79049492 10.3015461 -15.5936127 # CO2
374 374 2 0.0 19.2650509 3.82539296 0.797168016 # CO2
375 375 2 0.0 -10.7555590 19.7563915 -22.7759876 # CO2
376 376 2 0.0 -3.22601199 -15.7008972 16.3766994 # CO2
377 377 2 0.0 10.9668369 -11.1740723 3.33017302 # CO2
378 378 2 0.0 23.2403889 1.75795805 18.5771141 # CO2
379 379 2 0.0 -14.9137344 1.98639500 -20.9999733 # CO2
380 380 2 0.0 19.2632809 17.4755383 15.0427313 # CO2
381 381 2 0.0 -12.6712980 1.51578605 20.2533207 # CO2
382 382 2 0.0 3.94692993 11.0718327 13.0021124 # CO2
383 383 2 0.0 10.9873257 12.9198875 16.8891926 # CO2
384 384 2 0.0 -19.7043304 6.80820417 -14.8021193 # CO2
385 385 2 0.0 -18.0660191 9.83603287 -19.5125618 # CO2
386 386 2 0.0 -15.8152103 18.6498222 -0.529877007 # CO2
387 387 2 0.0 -10.8232803 -0.227783993 -3.81260705 # CO2
388 388 2 0.0 -1.36587203 -15.0222702 -17.7614079 # CO2
389 389 2 0.0 2.21949697 -17.5901203 -1.72860897 # CO2
390 390 2 0.0 -19.4995193 5.38687801 20.9636936 # CO2
391 391 2 0.0 -18.0370789 -18.4564342 -21.2649231 # CO2
392 392 2 0.0 3.13521409 22.9472237 0.679943025 # CO2
393 393 2 0.0 -20.9075584 6.25717306 15.6490240 # CO2
394 394 2 0.0 -11.9798498 -22.1457901 -18.7159004 # CO2
395 395 2 0.0 -8.15059185 4.93651104 -3.92438006 # CO2
396 396 2 0.0 -7.75131512 -11.0911140 20.4252682 # CO2
397 397 2 0.0 3.65664601 17.8231182 10.9601097 # CO2
398 398 2 0.0 -23.0906868 -9.77772903 -23.4017525 # CO2
399 399 2 0.0 -18.2203903 10.9361830 4.49629985E-02 # CO2
400 400 2 0.0 7.28597689 -7.35248709 -11.1218042 # CO2
401 401 2 0.0 -11.5567265 12.1060524 -13.3627701 # CO2
402 402 2 0.0 19.7499046 10.2891150 -16.4617290 # CO2
403 403 2 0.0 14.1756706 -1.17201495 7.15122890 # CO2
404 404 2 0.0 17.7525597 -4.25067711 -6.19589710 # CO2
405 405 2 0.0 -23.0896015 23.5436649 2.65975404 # CO2
406 406 2 0.0 4.11713982 19.6517715 14.3910484 # CO2
407 407 2 0.0 21.8200684 6.90851879 -4.51854420 # CO2
408 408 2 0.0 12.8120270 -22.1380157 -22.6368561 # CO2
409 409 2 0.0 -22.9980507 12.6714058 -1.68775499 # CO2
410 410 2 0.0 -5.85370588 12.7803736 -15.2980576 # CO2
411 411 2 0.0 22.9969254 -2.91732001 -21.1427155 # CO2
412 412 2 0.0 2.76095891 -4.04407120 -20.8317394 # CO2
413 413 2 0.0 15.6158895 -12.3436852 -14.6616144 # CO2
414 414 2 0.0 -15.9802818 16.2601738 -21.4198017 # CO2
415 415 2 0.0 21.2327461 4.71033287 7.52305984 # CO2
416 416 2 0.0 -19.5243664 0.118525997 7.45685911 # CO2
417 417 2 0.0 -16.7015972 22.4170399 3.07892394 # CO2
418 418 2 0.0 -5.86548519 -1.04875398 -5.46038008 # CO2
419 419 2 0.0 -5.78952408 19.7268009 -11.3796091 # CO2
420 420 2 0.0 -7.05298090 10.1595917 -9.63859558 # CO2
421 421 2 0.0 21.5287704 -3.01790190 4.16336489 # CO2
422 422 2 0.0 8.46955395 -6.96075392 11.5269670 # CO2
423 423 2 0.0 -0.547031999 21.5264492 -3.17070293 # CO2
424 424 2 0.0 0.808668017 10.7090549 -21.8746624 # CO2
425 425 2 0.0 18.3088398 -4.50373411 13.3487663 # CO2
426 426 2 0.0 -8.63926411 20.7533913 -9.52615166 # CO2
427 427 2 0.0 -10.0714989 -19.5077248 -12.8108826 # CO2
428 428 2 0.0 -2.65156007 -23.5668945 20.6042213 # CO2
429 429 2 0.0 -9.63338757 -14.5132284 -14.6043167 # CO2
430 430 2 0.0 14.4330931 20.7244396 -22.7688618 # CO2
431 431 2 0.0 -2.03882694 -10.8692627 11.3348217 # CO2
432 432 2 0.0 -7.76395178 19.2304688 -13.4257565 # CO2
433 433 2 0.0 22.4720993 -9.69491673 18.9295254 # CO2
434 434 2 0.0 -21.3529072 -9.27137756 3.09126496 # CO2
435 435 2 0.0 13.6896267 -13.6143951 10.9596109 # CO2
436 436 2 0.0 -12.6262283 -23.4270649 -13.0477610 # CO2
437 437 2 0.0 -14.9113817 -7.47879967E-02 14.9241714 # CO2
438 438 2 0.0 1.00237799 -13.0845222 -8.92706299 # CO2
439 439 2 0.0 11.0737410 0.933713019 -20.8304062 # CO2
440 440 2 0.0 -1.71403599 -17.4005547 -23.3833961 # CO2
441 441 2 0.0 9.78847218 9.65420341 22.8090515 # CO2
442 442 2 0.0 -5.44043684 -14.4312840 15.0404730 # CO2
443 443 2 0.0 16.3874779 5.66247177 -21.5259819 # CO2
444 444 2 0.0 -13.0474558 -14.1907063 0.840556979 # CO2
445 445 2 0.0 -9.94189262 22.6265106 -11.7725058 # CO2
446 446 2 0.0 -17.4733372 19.5569267 -20.1259956 # CO2
447 447 2 0.0 -18.4425163 -15.3298016 -5.41556120 # CO2
448 448 2 0.0 12.9597473 13.4710112 -23.5887794 # CO2
449 449 2 0.0 21.6690502 17.5453682 10.1026964 # CO2
450 450 2 0.0 -5.95197201 -13.7020311 -2.75675511 # CO2
451 451 2 0.0 10.3261061 -14.2110033 -0.858202994 # CO2
452 452 2 0.0 -16.3052464 -8.68105793 14.0360575 # CO2
453 453 2 0.0 -19.2367287 20.2517796 0.226174995 # CO2
454 454 2 0.0 -14.2987375 0.486384988 -13.3589230 # CO2
455 455 2 0.0 4.90687895 15.6411228 -20.2224903 # CO2
456 456 2 0.0 7.81099415 -18.2616348 -6.99788904 # CO2
457 457 2 0.0 0.673844993 10.4529600 -17.7839069 # CO2
458 458 2 0.0 -13.0716906 -15.2428389 -12.3106766 # CO2
459 459 2 0.0 21.7935867 7.17245913 -21.9531918 # CO2
460 460 2 0.0 5.60424995 -0.649321973 14.8667631 # CO2
461 461 2 0.0 2.87295604 15.3090229 9.01743889 # CO2
462 462 2 0.0 -21.8242702 0.469996005 16.9668312 # CO2
463 463 2 0.0 -18.9532413 -5.05763483 -17.9989929 # CO2
464 464 2 0.0 -19.3095856 2.42549706 -18.2278252 # CO2
465 465 2 0.0 13.7714252 14.6043568 19.9250336 # CO2
466 466 2 0.0 -7.74183893 -6.88794184 0.672267020 # CO2
467 467 2 0.0 -10.6037149 -0.894369006 -22.1489944 # CO2
468 468 2 0.0 -13.7942677 -15.2220793 -9.59608841 # CO2
469 469 2 0.0 20.7157688 -11.4638538 21.7226925 # CO2
470 470 2 0.0 7.28766680 -22.7631397 -2.15666890 # CO2
471 471 2 0.0 5.35089922 9.09662819 -22.9708748 # CO2
472 472 2 0.0 -7.57515097 -14.0965099 -10.6816330 # CO2
473 473 2 0.0 -1.22895205 -14.6272125 -4.39511681 # CO2
474 474 2 0.0 -22.2525711 -11.6533842 22.7117958 # CO2
475 475 2 0.0 0.844101012 -17.0427628 -9.13035393 # CO2
476 476 2 0.0 -10.4317789 14.5780344 -12.8868046 # CO2
477 477 2 0.0 9.43687153 4.26324606 -22.1288433 # CO2
478 478 2 0.0 7.66192579 -2.59002090 -14.5026207 # CO2
479 479 2 0.0 18.0471725 -11.7328148 -2.69146299 # CO2
480 480 2 0.0 -18.4110584 17.5322666 -9.12698936 # CO2
481 481 2 0.0 -15.8044567 -18.6756134 -3.98265910 # CO2
482 482 2 0.0 1.64787102 4.86788797 18.4810104 # CO2
483 483 2 0.0 2.41983795 -21.5713310 -2.44894910 # CO2
484 484 2 0.0 -18.7076263 -7.77840281 9.86481285 # CO2
485 485 2 0.0 22.1585102 10.9397297 1.24100002E-03 # CO2
486 486 2 0.0 -3.19163609 6.71139908 8.96053791 # CO2
487 487 2 0.0 11.1306114 6.87086916 -11.5717564 # CO2
488 488 2 0.0 -14.3954487 22.2236595 23.1682644 # CO2
489 489 2 0.0 -14.2948666 -6.83427095 -22.5730801 # CO2
490 490 2 0.0 21.5943584 4.97533798 -23.7493362 # CO2
491 491 2 0.0 18.1175442 10.5928736 -9.88994408 # CO2
492 492 2 0.0 2.45453310 -18.5012302 8.55615807 # CO2
493 493 2 0.0 13.4311209 8.19974422 -18.0880432 # CO2
494 494 2 0.0 -20.5044003 8.12050056 -3.34117603 # CO2
495 495 2 0.0 -15.9208536 15.7999620 16.3479519 # CO2
496 496 2 0.0 8.72076416 0.116532996 -6.78109694 # CO2
497 497 2 0.0 9.23808479 -6.60891199 -14.2659063 # CO2
498 498 2 0.0 -20.3768768 9.94970894 13.4335804 # CO2
499 499 2 0.0 16.1802902 17.0088177 -11.7674294 # CO2
500 500 2 0.0 11.4576750 -18.6719875 -18.2064800 # CO2
501 501 2 0.0 13.8703747 -1.94301605 -17.6337051 # CO2
502 502 2 0.0 3.93745589 21.9797783 -20.5533543 # CO2
503 503 2 0.0 -14.1748276 12.4276094 -16.1581936 # CO2
504 504 2 0.0 -7.08794308 -11.7178507 14.3886547 # CO2
505 505 2 0.0 21.7376709 9.87377262 -5.52338600 # CO2
506 506 2 0.0 4.71400309 -21.6379967 8.54080009 # CO2
507 507 2 0.0 -0.299733996 -1.33800006 -9.46286106 # CO2
508 508 2 0.0 -20.4783192 -11.9919386 16.4176292 # CO2
509 509 2 0.0 14.6989126 -7.26767492 2.32337904 # CO2
510 510 2 0.0 6.68951607 5.13180010E-02 5.38258886 # CO2
511 511 2 0.0 -4.71323919 22.4840240 -18.3737221 # CO2
512 512 2 0.0 -8.69402504 21.1414204 17.6219139 # CO2
513 513 2 0.0 -2.30851412 -19.0864944 1.33853805 # CO2
514 514 2 0.0 -16.7073612 -12.0616350 -6.86666203 # CO2
515 515 2 0.0 5.44269323 8.22943115 21.3138905 # CO2
516 516 2 0.0 -14.5856504 13.8161001 19.2557716 # CO2
517 517 2 0.0 -8.98553562 13.1867342 21.3674698 # CO2
518 518 2 0.0 10.0517340 -9.00735760 17.0035686 # CO2
519 519 2 0.0 18.6936054 10.4241781 3.16238403 # CO2
520 520 2 0.0 0.349629998 20.2095833 1.40372503 # CO2
521 521 2 0.0 17.3186874 -14.0578880 -20.8644848 # CO2
522 522 2 0.0 9.77995300 7.28056383 -20.3295498 # CO2
523 523 2 0.0 -17.6344414 1.72192299 15.7079849 # CO2
524 524 2 0.0 2.57120490 1.87538898 13.5047092 # CO2
525 525 2 0.0 -13.2402954 -4.03702593 -13.2033796 # CO2
526 526 2 0.0 -0.119804002 -11.1136866 2.65600610 # CO2
527 527 2 0.0 -13.3580914 2.04744601 -7.45163107 # CO2
528 528 2 0.0 15.5662975 -6.85867310 -5.77807999 # CO2
529 529 2 0.0 -10.0622997 -16.1125259 10.8102541 # CO2
530 530 2 0.0 -6.58892012 -1.20766795 12.3977928 # CO2
531 531 2 0.0 -20.0173187 -10.0455589 -13.6259546 # CO2
532 532 2 0.0 18.3614845 -13.2635384 -14.8250418 # CO2
533 533 2 0.0 -1.73856401 -13.1119184 -8.18493366 # CO2
534 534 2 0.0 -16.5708160 -17.0131416 18.3243427 # CO2
535 535 2 0.0 -8.90919399 -14.7466993 -5.87614918 # CO2
536 536 2 0.0 -0.653212011 -9.56781387 -13.4387321 # CO2
537 537 2 0.0 -7.82793093 11.6883688 13.6577797 # CO2
538 538 2 0.0 23.1858597 12.4988632 3.57620192 # CO2
539 539 2 0.0 -23.7275829 -16.9132519 -10.3247948 # CO2
540 540 2 0.0 -23.4798851 -13.6979160 7.28235912 # CO2
541 541 2 0.0 9.69247818 5.62535381 -9.31753540 # CO2