LAMMPS data file via write_data, version 29 Sep 2021, timestep = 7000000

1060 atoms
2 atom types
60 bonds
1 bond types
60 angles
1 angle types
60 dihedrals
1 dihedral types

0 45.7721104407885 xlo xhi
0 45.7721104407885 ylo yhi
0 45.7721104407885 zlo zhi

Masses

1 13.019
2 44.01

Pair Coeffs # lj/cut

1 0.11 3.75
2 0.4692 3.72

Bond Coeffs # harmonic

1 469 1.4

Angle Coeffs # harmonic

1 85 120

Dihedral Coeffs # opls

1 0 7.25 0 0

Atoms # full

526 526 2 0 7.321758387578539 1.1981725083124133 8.546104274346314 -3 3 7
618 618 2 0 1.1198375175368067 2.9931678029515423 7.2852092272413005 5 6 5
416 416 2 0 4.28642969473244 11.035559210018866 5.575863482678808 -2 2 -1
490 490 2 0 2.857474194025987 4.23005905020944 4.507725590407918 -2 -2 2
381 381 2 0 45.50169457311921 7.083415998630731 8.020308911045255 0 1 1
252 252 2 0 3.195240895924858 5.553356410155024 0.6042878928130104 -1 -1 -2
705 705 2 0 6.573434638276913 7.973938352555244 7.6558541234724995 -3 7 3
138 138 2 0 8.319203310616896 10.932768990166498 3.2524125012179796 5 0 -5
852 852 2 0 8.89108362375112 5.136644512980552 6.951967971959567 0 -2 -8
907 907 2 0 1.313298669347913 7.98590676226238 4.370606904533034 -4 9 1
407 407 2 0 3.78284584519142 1.4869891593065903 1.4064090526333266 -2 -3 0
672 672 2 0 6.266128534765402 4.787062368424306 2.6773671112452386 1 0 -1
785 785 2 0 10.213341440944047 1.471562168001788 0.19249480896129553 -9 4 -8
948 948 2 0 10.119202302590415 5.441102505698256 2.9882503955904935 -9 4 -1
215 215 2 0 15.961467706058917 5.8779787233854 6.0065521082395845 4 8 -1
183 183 2 0 13.282001675795662 0.8279526749862434 3.3631880820015936 0 -2 1
576 576 2 0 16.686641502460056 3.5046409599656947 2.1460182016676366 -2 -2 2
593 593 2 0 13.63713419728867 8.901567578268732 2.8842213709358147 -3 3 -1
444 444 2 0 16.837352791017434 9.314644636555027 4.8738511433833445 5 -5 3
806 806 2 0 9.819031432121978 10.75033058646514 6.695488100984506 -5 4 2
362 362 2 0 19.019214392590168 2.0789625439973003 6.014702806813851 6 -3 -7
201 201 2 0 12.19952085099261 3.666741127179975 6.017616150990321 11 1 -2
9 9 2 0 19.958853907554516 9.987492521570193 6.649426694137005 4 3 -1
44 44 2 0 12.071708785102642 7.568603506667274 6.110182231203808 -9 -1 3
67 67 2 0 26.263775525229192 0.8793427215900663 3.0704551586551494 -1 -5 2
246 246 2 0 22.199210818362076 2.183976045552002 3.9972345838810406 -3 3 3
899 899 2 0 23.09399921807821 5.891284354155718 4.282730302488593 7 0 1
323 323 2 0 25.85317424691314 7.497114954836126 6.419917818217413 8 3 5
524 524 2 0 26.419861830313575 6.796121124686181 2.3411936687973705 4 -3 0
706 706 2 0 36.70640387278712 22.714579090696496 3.8705122519365927 -6 5 4
766 766 2 0 22.92946429563497 11.38661558052104 3.7682169425428573 1 -1 -3
990 990 2 0 42.10239657251517 20.379758486475726 1.2798186376050227 3 2 1
277 277 2 0 30.95814537889333 8.722772225858117 7.495963651133336 2 1 2
909 909 2 0 23.97544375201569 10.74889303531859 0.44004526123923504 -1 0 1
572 572 2 0 39.18212005906172 3.7647824426744565 5.5276556553253515 1 3 2
218 218 2 0 28.72621440476919 4.965011620903392 5.150415932920824 -1 6 2
521 521 2 0 33.44769213246612 4.107729290872924 6.241472203178845 -5 3 6
523 523 2 0 35.34607705935773 12.953113648749442 1.8760098935679628 0 2 -1
14 14 2 0 27.311922367481426 10.713832341391143 3.1172559531280184 2 3 4
80 80 2 0 35.168100736017244 8.02274759288623 4.768048320389835 -1 -3 4
781 781 2 0 27.921225413441398 2.024907978010223 7.844286005669874 0 2 -7
193 193 2 0 32.32117773472818 11.541393298365103 3.522988784697707 3 0 -5
332 332 2 0 29.212470114957735 15.165902504808678 0.6453151165765871 -2 2 -2
126 126 2 0 42.553781484387024 4.197709168522768 4.994746913151606 -3 1 -3
216 216 2 0 5.139723401839707 20.52096114363311 7.946457768198585 7 -5 0
979 979 2 0 9.205103802120762 8.767520562672338 0.401193591249494 -3 9 4
801 801 2 0 40.3791733423438 1.9414338643601827 0.37340442618185055 -6 0 6
692 692 2 0 40.25811608267863 7.21153068510877 2.5080555704984606 -10 -1 2
853 853 2 0 39.01410523562212 12.141929088257289 4.506949439537324 0 2 -4
228 228 2 0 5.849967324735123 14.37120876201518 0.40579839418474484 4 -4 2
863 863 2 0 44.42545000155357 10.132171383606078 2.580170763160124 6 1 -5
989 989 2 0 23.77481310632297 4.515369004433913 0.5792058990086834 -10 0 3
977 977 2 0 2.5546559953292904 15.452443605262546 2.541808163661783 -4 1 -8
807 807 2 0 8.329395437860121 18.53886425242817 6.881576629080756 3 0 3
192 192 2 0 3.7168531762351322 11.09142661914077 1.2941319616691238 9 2 -10
456 456 2 0 43.76447647019877 16.558586946979567 0.6178359751849726 -7 -9 -3
170 170 2 0 7.627415708019471 15.23659534528823 4.360157305688075 0 -6 -3
82 82 2 0 4.779074150320134 20.10417757669631 0.3513388113077808 1 2 -2
410 410 2 0 4.012532129839989 19.530323498512356 4.638971686133799 -7 1 3
374 374 2 0 1.5371820219649757 22.416700999268024 2.5256106727377845 -3 0 5
74 74 2 0 31.868328863917306 4.367617958183298 1.8941015463169617 4 3 6
71 71 2 0 8.893440524856116 19.04411392824049 1.791818918997634 -5 -8 -6
243 243 2 0 8.756043523583623 1.1682486259817766 3.9405282669159 1 1 2
791 791 2 0 39.15939379988818 20.9257978108606 7.331941441252299 -1 4 0
541 541 2 0 0.9718433731058097 13.684228796871716 5.619806394284711 -2 0 -9
454 454 2 0 12.546916838289599 16.083942555135707 7.629741037972454 -1 6 -1
888 888 2 0 11.666412293534513 12.208694074758688 3.7568972103882037 1 0 4
227 227 2 0 11.57155174429453 19.920898223745663 6.142488442041656 -3 3 0
127 127 2 0 17.434993693180882 15.740997578812442 8.068243943082743 1 5 0
373 373 2 0 6.870308597240965 22.72543807057053 4.7134653404350875 4 -8 9
636 636 2 0 21.41250633075738 7.754595139639629 1.0376974081164945 -3 8 -2
795 795 2 0 14.18134362936421 16.511746452138453 3.2857080054446004 -1 -5 3
86 86 2 0 25.68772323611817 15.282294896108999 2.438078518826929 -2 -1 7
592 592 2 0 21.267316004190622 15.509129425980683 3.347508044236752 -6 -4 -1
895 895 2 0 33.376034871277 16.90602812878765 0.3297153590490034 -7 -4 -1
574 574 2 0 16.959095994947774 12.985209047762229 4.7281400403258145 -2 3 5
814 814 2 0 19.13816897013317 10.901222045255315 1.5472813166623438 2 2 -3
245 245 2 0 20.718417600761075 13.549545944376288 7.9452548700282115 -3 0 -5
481 481 2 0 26.719262853618304 21.83310536994687 2.978351199046647 3 1 -1
556 556 2 0 24.108039075906007 14.05096891032103 6.430125814734787 -5 8 2
918 918 2 0 25.268051680107458 21.13199723245613 8.204237341587465 0 1 4
197 197 2 0 31.48902782425077 22.17719755716534 2.582939235092182 1 -3 -3
306 306 2 0 15.198725881392418 11.887517704227088 1.7137824548536322 -2 8 10
339 339 2 0 39.65959382181381 11.60449495327916 1.00751530511183 2 2 4
955 955 2 0 31.387726002818603 16.401107383330206 7.228665832576928 1 1 4
691 691 2 0 0.9064404600927586 17.08801585518374 8.925780750516752 7 0 0
699 699 2 0 30.52041874060138 18.618629900211857 2.8515939372950148 -5 -2 -1
85 85 2 0 29.24304815949322 14.639846674334267 4.770112509271526 1 -5 4
740 740 2 0 12.887399246089279 20.720887027629114 2.527178296243892 4 1 -1
93 93 2 0 28.336194627582838 18.505783306648937 8.09283799309621 0 2 -2
175 175 2 0 33.60773814793595 11.700702794552322 6.922678285626816 -5 -3 -1
372 372 2 0 43.17899176068544 13.432274768825144 4.0358434921777935 -9 -3 8
811 811 2 0 43.86430092348521 21.328143483330237 4.450709635473689 1 -4 7
708 708 2 0 44.323996840406934 17.02122574405833 5.560703809022742 -3 5 2
2 2 2 0 39.92848927629618 15.496238150753566 2.2780346282396295 -2 4 -4
1002 1001 1 0 38.632888063261284 22.73331469157922 0.23869439817512741 2 -2 5
168 168 2 0 34.90134390338973 19.77134917180084 2.2640023323343 3 6 6
281 281 2 0 36.467026070310105 14.570767908998398 7.660069740969516 -10 2 4
64 64 2 0 36.16368018121535 19.049295614592175 6.587252770368579 0 2 -2
151 151 2 0 38.686446449498895 19.3384864505552 3.2974875324935407 -4 1 -2
59 59 2 0 1.7476392057664079 22.055516043991556 6.974409142030447 -1 7 -3
928 928 2 0 42.05974867823516 12.02596529625329 8.569879726220039 -2 4 -4
741 741 2 0 21.4685020565546 20.808387210330054 1.898146028461927 0 0 4
840 840 2 0 32.81905842473437 0.20040125263841102 8.48521555616855 0 1 -5
884 884 2 0 19.386954544028118 7.069201409229476 8.656122094245944 2 -3 -2
121 121 2 0 41.35592294181006 15.564619165389438 7.444734145729945 3 3 5
353 353 2 0 38.90370175074149 9.892600692460533 8.124496004109252 -3 -2 1
87 87 2 0 42.85955640370136 18.848887734575538 8.680374561033073 4 -7 4
503 503 2 0 27.75554798021797 19.03999151605682 0.04935918179815246 2 3 -5
573 573 2 0 2.1828139702721083 1.962867291279016 12.861136393134236 -2 -3 -2
945 945 2 0 4.336737127109938 4.2585736712278575 9.25535370854444 4 2 -1
302 302 2 0 8.57232753846156 4.902870822590853 11.529654616312815 3 -2 4
111 111 2 0 6.183396090388981 10.011054237286993 11.044665872766176 4 -2 10
996 996 2 0 8.149968549994362 3.763705666375048 17.31965364674883 -4 -2 -1
856 856 2 0 2.0478554339458 6.1590014919451725 14.560835226738938 6 -5 -1
906 906 2 0 5.761799436130271 1.1633960026546695 12.397871650224246 6 -5 -4
29 29 2 0 44.83403041503895 8.096465846906288 12.258338694257903 -4 2 -3
567 567 2 0 5.812979279305241 8.434405030529732 14.527451634881924 4 6 6
389 389 2 0 35.292362446501556 8.448170092747553 17.271667570769452 -11 -2 -2
432 432 2 0 33.9312513178905 0.409705383493976 13.971428051665518 4 5 -2
805 805 2 0 10.647777065223618 1.388667410778387 15.342798954226483 5 8 1
209 209 2 0 10.054483635136435 12.730590744546815 14.571915245385693 6 3 0
295 295 2 0 13.11086480577356 21.794016420296252 9.266679811746778 -12 -2 -7
533 533 2 0 12.932514977707651 5.758854217421184 10.666306875732724 -3 -2 -5
72 72 2 0 11.147668049016143 5.576006123281671 15.333635318332249 1 -2 0
32 32 2 0 9.413378452993683 8.871152832555966 13.40034561203807 -5 -1 -2
461 461 2 0 15.643415986765376 8.147497293890893 9.56735631562747 8 3 -2
697 697 2 0 16.35658803696896 4.861372871240417 13.080433884010063 2 -5 3
696 696 2 0 18.434743035133227 9.081853319490397 13.632844596354571 -4 -1 -1
924 924 2 0 12.716326902407937 9.137650509583658 16.465696962057073 -5 0 -6
143 143 2 0 25.277335910715255 9.942215350138131 9.759127168852675 -6 3 -4
394 394 2 0 16.432526255951675 2.271202384665113 17.245031846462417 -9 6 7
717 717 2 0 23.201284952717742 2.6764323423244485 15.81272296289324 -2 -2 -6
442 442 2 0 21.74634809521746 10.046256811270482 11.400658113037702 -6 5 1
140 140 2 0 24.46653562869831 5.036755671566058 12.833359404761042 -2 -6 4
784 784 2 0 23.894800290393068 8.483227490173194 14.855850299048933 0 -2 -1
296 296 2 0 15.694527448787735 6.224972080659272 17.52574431481954 14 4 0
678 678 2 0 19.549340969480273 3.133960882324018 14.565652916097836 -2 4 3
582 582 2 0 20.847953868752743 9.169448013841471 16.75484619530069 1 10 5
234 234 2 0 29.052173685396 7.1393242855904555 16.735791919452527 -6 -4 0
512 512 2 0 28.575259252283292 9.190093042722618 13.090279249345253 -1 -3 -1
271 271 2 0 32.021765377353226 4.585901409273742 15.855412020164394 3 0 2
724 724 2 0 30.144413556101604 5.870108487622792 11.203973188668407 -7 -5 3
221 221 2 0 35.865918260454166 10.996631895202986 13.372710793667734 1 -1 1
600 600 2 0 31.132148451335205 2.142282183667635 11.93623832593786 7 6 -3
637 637 2 0 41.4616917107493 21.821955783215294 11.481122200107274 3 2 -2
540 540 2 0 32.178113799292916 9.379486048815572 11.583033109715645 1 0 3
1025 1005 1 0 37.13489970243119 3.396234349875683 14.381346027439317 0 7 1
671 671 2 0 40.981740289335086 2.4836595353311313 11.744885500016183 -3 -4 1
703 703 2 0 35.89564381087924 2.777348168134703 10.706840790703454 -1 -1 -4
1027 1005 1 0 39.376483173631925 2.9095474435218085 15.129231543114788 0 7 1
1030 1005 1 0 37.35517201997559 4.754644180782478 14.593077332880066 0 7 1
1029 1005 1 0 38.52571204363502 5.194141021063877 15.177995594324965 0 7 1
1028 1005 1 0 39.54524255114408 4.231533697929266 15.3592014633025 0 7 1
847 847 2 0 34.70721328607568 6.9715078556184515 10.029860633922455 5 2 -2
92 92 2 0 39.267183592335385 8.843543284321399 16.081522245332756 0 -5 -6
21 21 2 0 45.13687437766264 4.206413515367946 10.815714846986923 -1 2 2
695 695 2 0 43.61145979675096 4.169200524672483 14.483628961859448 -1 0 3
951 951 2 0 2.995526793564708 10.5201852256067 14.633464575120534 0 1 -2
113 113 2 0 41.19892322037301 9.179747130611402 12.804928477590316 2 9 2
1026 1005 1 0 38.166397919426 2.464799361080997 14.68709705678286 0 7 1
69 69 2 0 13.96214554780916 1.2332676529532047 13.00637972496576 4 6 3
395 395 2 0 18.4199655588981 2.8126573610340255 9.85485364897059 2 3 2
935 935 2 0 11.095616918697033 1.5534131422180193 10.557132352664658 5 3 0
25 25 2 0 1.2121759315780591 2.8481203697057937 17.01971378854611 -3 1 -2
507 507 2 0 2.0511052516590813 19.10634792495311 14.741203750174831 11 -3 0
716 716 2 0 3.9279986275578818 14.567529416575931 14.3073039327357 3 3 7
506 506 2 0 8.654348777912706 14.811095341100811 10.782965032594616 0 0 2
657 657 2 0 4.578421290113665 17.740224070866706 10.576427613374802 -2 2 -2
668 668 2 0 45.20342628578326 21.390216857173492 16.72323473242512 5 -10 -1
152 152 2 0 4.892852751014323 16.604883171676445 17.535256397402925 -2 -9 -2
105 105 2 0 16.602616736559707 11.760273990082693 9.673273786812706 4 2 7
505 505 2 0 37.804613142040814 18.352103918592235 10.620378677133045 0 0 3
580 580 2 0 3.3341189605251356 12.764268169425986 9.51070052168429 -2 -3 2
646 646 2 0 11.514283985435604 11.032418483999958 10.742696550441222 -4 2 5
476 476 2 0 13.326862281432938 15.436785731416025 11.324180106100966 6 0 -1
174 174 2 0 17.972441819786642 11.881451409258261 16.884758107039644 -4 2 1
269 269 2 0 17.367551931183403 16.112770164410414 13.72881764001762 6 5 0
51 51 2 0 15.616160800040745 12.443717610751282 13.097847968465308 -3 -8 -1
681 681 2 0 7.0181181124673 22.848618396662797 12.637905628870984 -6 0 2
953 953 2 0 11.927848334862814 16.025181384734793 15.744908223673557 3 2 0
587 587 2 0 14.680969285006295 13.463957289697285 16.40757676815551 7 -8 -4
142 142 2 0 13.725613958658034 19.44512921278156 14.396309411223124 3 -5 5
655 655 2 0 15.856862826087854 19.399117864761163 18.23256773299775 1 -1 -1
933 933 2 0 6.6977739795387325 17.079394020300942 14.182159111496732 4 -4 1
622 622 2 0 10.094748239236022 20.077560749853337 12.06290908013631 -3 0 1
715 715 2 0 25.414156328876917 18.683579446372658 11.632507047321509 -1 -5 2
254 254 2 0 20.429448913493623 14.02581937796834 14.337701271443695 4 0 5
160 160 2 0 19.16148348968089 18.753400313141867 15.999247490962295 0 7 8
941 941 2 0 15.891655420768288 22.727108493783625 16.186239909992892 -3 4 -6
61 61 2 0 28.018191216506224 21.934277541577643 16.268879489182282 4 2 -3
824 824 2 0 36.42583780458815 13.298584559026624 17.162098728100908 -5 10 -5
340 340 2 0 28.512381979002203 18.159594881351047 15.260900819869125 -6 -6 -2
570 570 2 0 36.282365982728024 15.671351132499936 12.887669426137162 -3 0 4
802 802 2 0 32.59348027337333 15.963737101309633 15.766925593360996 -7 0 6
37 37 2 0 27.85596424748197 13.594535918863063 13.04207697465739 0 6 1
144 144 2 0 29.364782868956198 21.04261269106086 11.225010108490066 9 2 0
460 460 2 0 27.435654965360037 11.142310141770063 16.2472460180476 -1 2 2
231 231 2 0 4.782802411008282 13.03148132274187 18.298963298510287 2 -1 -8
914 914 2 0 31.542713339404802 16.957511961961668 10.983334821137458 -2 1 2
650 650 2 0 33.125989182541964 21.15356941700989 9.230867674367166 4 7 -6
679 679 2 0 45.37274868158659 13.733191176620378 10.629423062362635 2 3 1
552 552 2 0 39.324451266772776 13.055756841385723 11.161365593471835 -7 -1 0
763 763 2 0 37.33389626514985 21.17173568953269 13.443509588731185 2 7 0
658 658 2 0 39.48195452987468 17.231407169042456 16.063116598312476 3 2 0
810 810 2 0 41.08014753184928 13.163073635366011 16.067604018084264 -1 8 -1
398 398 2 0 5.882817860100109 20.161516687755462 16.43339127693754 -5 0 -2
566 566 2 0 43.74213539980534 18.97192842314003 12.630114020492496 -7 -4 2
666 666 2 0 43.7710116297482 16.88782705769461 16.029513907967424 2 -1 1
886 886 2 0 31.01859747701144 12.400540276674464 9.833327275900908 -6 2 2
520 520 2 0 19.113887684766965 22.069644079188034 12.769978172468184 -4 7 0
818 818 2 0 40.83090026615515 16.48728253411906 12.067164615862373 -1 5 6
247 247 2 0 41.44077224226478 20.62355854661573 16.172580722919292 -8 0 2
106 106 2 0 25.579235767485894 14.839967269418512 16.91223384481281 -3 3 -2
62 62 2 0 20.789548763223742 15.321149235976414 18.116086827853287 3 3 7
304 304 2 0 38.67295367547198 5.59128964447805 9.972247070355875 -3 -8 -1
181 181 2 0 34.386544381852836 1.824019782503541 17.764823605705846 2 1 0
608 608 2 0 1.3731624063591639 14.631182367552578 18.270867769887673 -3 2 3
95 95 2 0 9.822579386025286 18.89024862593587 18.07649724088964 -2 1 -1
276 276 2 0 27.46568872565197 14.734292002328957 9.442977688816848 -2 -4 4
702 702 2 0 35.675973895580384 18.85276637611311 18.294508915441757 -2 3 0
851 851 2 0 23.32361259641361 12.173440271868873 18.229797531959413 2 1 -5
780 780 2 0 41.755410594536094 7.806777945883441 9.190417258664379 7 0 -1
292 292 2 0 28.12180079188888 15.118593056308152 20.058275709248374 0 1 -2
28 28 2 0 8.012046874265929 5.703901544596258 26.29207951593491 -1 -7 -3
772 772 2 0 2.21157415138025 6.040660656470971 24.174774770947028 2 1 4
539 539 2 0 2.316236309166555 9.59135836305753 26.812205361757364 0 4 -2
436 436 2 0 3.6958875990114897 8.77616172312165 20.403686398237358 -1 1 -1
154 154 2 0 12.02301075810096 19.28772675247089 26.887617585270185 4 2 0
848 848 2 0 7.308000665932769 0.9041126294917227 19.927017760258245 -1 -4 2
5 5 2 0 4.1316444951742115 3.285553764662277 21.83048661470706 0 2 7
208 208 2 0 37.696214170229354 22.2694515627028 20.773475190071064 -9 -4 5
50 50 2 0 13.575430144884761 22.21229947306967 20.047538141001706 8 -4 -5
599 599 2 0 6.220701800170786 9.008408838917395 23.546014631886816 -1 0 3
226 226 2 0 11.324342090657193 6.729349774099955 19.492416769092085 5 0 6
487 487 2 0 12.590818529108118 6.455090742956469 24.40819174023684 6 -2 -10
479 479 2 0 12.524267744805968 12.451972774222707 19.582856670291342 0 2 0
873 873 2 0 8.430085118371426 4.3940471208761425 22.127118446089654 -1 3 -4
484 484 2 0 13.167940020479321 3.945298607911773 21.924679178532642 -3 0 -5
656 656 2 0 11.410539569991299 2.124956579924422 25.242697797659662 11 -2 4
869 869 2 0 15.435172218776591 3.2646102480506793 24.69425099015786 10 -4 1
934 934 2 0 17.47914439205591 10.615600763433857 20.338623977569252 7 5 -3
19 19 2 0 15.65870251244522 8.210056903546743 23.1055258057867 1 4 -5
112 112 2 0 17.999199475512892 5.464869574943693 20.546401970197213 8 3 -1
335 335 2 0 45.42307709469122 9.509028630230592 18.318499546880847 -1 -7 -2
509 509 2 0 21.648920919267443 3.8910195129830405 19.81150126226931 2 -4 2
723 723 2 0 21.260617526897494 1.9831660213299007 23.80624303095533 -3 7 -7
586 586 2 0 18.446658684228876 5.255795166578331 25.08523736227636 -5 -1 -2
916 916 2 0 32.10615328054011 19.319094824625097 25.232192503448484 5 3 1
294 294 2 0 22.045110143815027 8.554180837289415 20.25571850077087 -3 -5 3
370 370 2 0 18.194607099395633 1.451922446729183 20.588128354006198 0 -1 -1
178 178 2 0 43.36848374141499 13.945512439225867 22.13274327203118 -5 -1 -5
871 871 2 0 25.001483236872154 2.7636983881464374 22.756672228741767 -4 1 7
66 66 2 0 24.992396332798858 7.101321452973189 24.17335172473315 -4 2 5
434 434 2 0 26.526814035359386 9.817682828883783 27.096924851810094 1 6 0
642 642 2 0 20.7567952299959 9.113510723246286 23.983362847306623 7 1 8
659 659 2 0 0.25772037050703717 20.00668710914479 26.229921917647157 0 -1 -4
730 730 2 0 27.891843933344916 3.7910831501123945 25.0494297588207 3 11 -3
517 517 2 0 27.214470920239552 7.675990406950368 20.68065063498558 -4 0 -3
369 369 2 0 32.058831406222325 4.246000999148288 21.044461577012253 -6 -6 1
563 563 2 0 34.540845799500914 8.015199234865893 23.056737419535825 3 0 3
963 963 2 0 8.150735080746271 10.478397430413693 18.506254066856133 -7 -2 1
13 13 2 0 33.610299306950736 2.8693828962658197 24.32332479319439 -7 4 1
985 985 2 0 42.15592062425038 20.238401690054822 24.20178046904001 -4 2 -1
401 401 2 0 39.915395006855285 1.6870643247909867 26.248406687655006 -3 4 0
775 775 2 0 15.229518937935804 7.35299833769476 27.20086221311961 -3 -4 8
451 451 2 0 39.93494797510417 4.47533588561763 22.437905215655032 1 -3 0
230 230 2 0 38.97003233623456 10.13353300238265 26.89915444112297 1 2 -9
898 898 2 0 38.30165480419142 8.075546938479041 20.960890061762925 2 7 2
877 877 2 0 17.568533673632807 10.898178012600683 26.03773178126542 -1 -2 -2
792 792 2 0 39.665425790978944 11.424441273771341 18.97944386159651 -4 3 -4
15 15 2 0 10.40652402512897 0.15051517288321994 21.684793161160165 0 -5 -3
782 782 2 0 42.9138921719827 3.697046846038032 25.127205394039624 5 -5 9
746 746 2 0 3.0918765408959015 20.47375068089339 24.168900098630633 5 -4 4
358 358 2 0 17.18260185429192 14.796081437413624 25.205059526131468 0 -3 -6
455 455 2 0 41.995978258354846 18.208408044977546 19.860839462690013 -1 -4 2
774 774 2 0 3.272915540511203 18.03732644408155 20.72205557762562 1 1 1
23 23 2 0 1.5920927802884717 13.939987697673429 26.185382431958658 0 0 -1
554 554 2 0 8.288439622051706 12.32675040985484 22.945277692647476 -6 -4 -1
251 251 2 0 6.663898936077249 20.331444785128863 20.145928883929088 -2 11 3
266 266 2 0 3.083523906119144 13.037112575330273 21.873776481220283 1 -2 8
501 501 2 0 35.54985666005497 15.664029864503457 26.138200098381223 0 -2 0
529 529 2 0 7.585311103591432 20.33390476229076 24.418370705119763 -4 0 4
396 396 2 0 12.132346240979336 2.3692834986937266 18.78089383649671 -8 4 0
803 803 2 0 16.4038333134221 15.310417217765757 19.04109532614923 -3 1 -3
280 280 2 0 12.086922127585739 19.406082526587692 22.164238769513837 -1 -1 2
423 423 2 0 7.6023434846511435 16.482032869252937 22.08418048771523 -1 -2 1
392 392 2 0 16.783410590675363 19.124308039890035 22.430045065781343 7 6 -2
77 77 2 0 13.186377131841985 11.234516717280403 24.345437255009056 -6 -9 7
961 961 2 0 20.33819474232209 21.129408309493844 20.165540860379366 -5 -2 -1
876 876 2 0 13.427549007385172 15.143571058486515 23.254129098032234 0 3 12
752 752 2 0 38.73540962423177 16.353498788385004 19.95153524244713 1 1 -2
238 238 2 0 42.68227179786533 7.368761563871896 18.719074967165426 3 0 12
631 631 2 0 31.951528000074045 14.400675208868803 26.417477731569555 2 -6 2
532 532 2 0 23.02404529114472 18.41674618966013 22.264238019624205 -1 -2 -10
293 293 2 0 21.071594994136557 13.07118735599553 25.91898810026372 -1 -2 -6
728 728 2 0 26.431240805782316 18.09828691301737 23.595878794998086 0 -1 4
779 779 2 0 24.206905546625983 15.21437362938962 24.797709111932807 -3 -1 2
799 799 2 0 36.28360457041528 11.961084066591964 22.630735617153594 1 0 -4
707 707 2 0 39.678747762620944 22.315651956999012 26.768514378579834 -1 1 -1
625 625 2 0 21.285502124845912 12.61069886418969 21.494560492839664 2 -5 0
78 78 2 0 37.94409091547282 19.071694897691415 23.783563176673557 -7 0 9
734 734 2 0 26.126621465502005 12.530414704245079 22.18374788804029 -1 -1 4
891 891 2 0 31.546012879373418 19.952216151621656 21.133573813753774 5 -2 -4
826 826 2 0 27.13360674881159 19.415674091345082 20.140256772502582 0 -7 5
675 675 2 0 3.8136220596538717 5.10957498105356 18.568806874937174 1 2 -1
172 172 2 0 29.140934511899193 16.601909027564663 25.92986287108172 -8 3 14
265 265 2 0 30.3183933094054 22.11870878365349 24.20642110329763 0 3 3
65 65 2 0 43.05126366456321 3.2753337522209263 18.800547206177118 0 -11 -4
673 673 2 0 23.971291386694727 3.0615876722556736 26.500862147927432 -9 -4 0
261 261 2 0 31.16324225340643 1.346337525021214 27.41589411483636 -2 0 2
929 929 2 0 8.955122461923503 14.192834610462828 18.32260603581805 3 3 -5
333 333 2 0 0.7509305401512694 6.124167277728508 28.8377617700448 -3 1 10
495 495 2 0 38.08321269864562 22.096417527340467 35.10380862943078 -3 -2 -8
881 881 2 0 7.183325902564488 2.7698241349228567 32.78982448733518 4 -5 -4
859 859 2 0 31.53081808434878 20.137478619373443 36.38436288018077 -1 0 1
288 288 2 0 3.2326710716573452 6.058644332809422 31.72043506079792 0 -1 5
483 483 2 0 5.675512037558067 8.310780008828429 29.138693124907494 3 -2 -6
661 661 2 0 9.452843501015101 12.010456006606951 28.91894880627031 -2 -5 2
555 555 2 0 45.20821346691898 7.772877863353132 33.087692011846016 3 -1 5
542 542 2 0 3.7568819133106826 3.121310395749969 27.737989963691287 8 -9 -1
949 949 2 0 9.477225025832935 13.525305320719688 34.91564553196137 2 -5 -6
809 809 2 0 8.423784089082279 6.95465908186143 31.95568615503444 8 1 -4
342 342 2 0 13.924810818591416 3.2428538089761454 28.189749785526395 0 2 -1
274 274 2 0 16.74578458137637 3.3422405475596255 32.71211423966393 0 10 2
45 45 2 0 11.887226797634767 9.757438656565824 33.99979820374976 2 -5 3
773 773 2 0 10.669961074294285 2.599850756083862 32.18807531295233 0 5 0
430 430 2 0 11.382576064188703 6.243402873750253 29.003142137870444 -4 0 -10
314 314 2 0 12.506531518175144 5.964389165370806 33.21914220080387 4 -2 1
749 749 2 0 15.15675489054995 8.862871464862057 31.251002322724197 -1 1 -6
161 161 2 0 35.39086822606825 19.374385612617463 27.499326443542007 0 -10 -1
610 610 2 0 33.23275848030184 22.308564849557868 28.546877385571428 0 3 0
912 912 2 0 7.239189610349868 2.1823992587670253 28.071799945740675 -6 0 -1
838 838 2 0 13.708922956428559 12.0802469329252 27.968836375705386 3 -5 3
892 892 2 0 18.41875726944021 8.417185743107911 33.45730927534585 -4 4 -6
686 686 2 0 13.723296248904306 2.9795468708097945 36.49436975724967 1 -5 0
562 562 2 0 13.490861768576524 22.678536990333285 30.800368330952853 0 -8 1
17 17 2 0 42.918980720098936 0.08008550170664681 30.60827884444116 -3 -1 -3
100 100 2 0 22.933938095934234 7.672394183624558 31.203667730943607 2 2 1
612 612 2 0 18.91061480788104 7.86183003543225 28.52072920237307 1 -1 2
38 38 2 0 21.663540949729608 11.087123441595036 33.67176901173983 2 3 1
836 836 2 0 25.365781347566543 6.917179449390308 36.022501760789595 -4 -1 -2
478 478 2 0 19.02377634077303 12.536320483346467 30.689361615362866 4 7 0
694 694 2 0 30.419216487913985 1.3739858743703344 32.519071670931496 3 3 -3
352 352 2 0 31.209994642076634 6.106173852290146 34.752103425574624 0 -4 4
880 880 2 0 28.390671365779923 12.843107552630412 33.855431977686756 0 -2 0
420 420 2 0 31.125216183476592 5.798096106534403 28.265366718387597 6 8 6
607 607 2 0 36.47048793528729 5.311786820340712 28.30484758584266 3 4 -3
872 872 2 0 26.85959378394318 5.878830756044142 29.08528821652828 7 1 4
527 527 2 0 22.655515520588743 22.324541896254246 29.838790668130834 2 -5 -9
241 241 2 0 34.267198680844324 8.547157075948464 30.205013735681714 1 -3 3
27 27 2 0 39.344664508467886 4.127038034307491 31.236167839447436 1 -2 3
798 798 2 0 40.122881374302914 6.410508793201038 27.612112668863542 -1 1 -2
382 382 2 0 41.97483659248072 5.300181342971089 34.54145208348598 -4 2 0
983 983 2 0 2.5825018144553438 3.4066394478550195 34.154001441690724 -3 -1 4
632 632 2 0 38.732422573761454 6.655517900438167 34.364085605502346 2 -3 -6
133 133 2 0 38.49240997834278 10.245267535174394 32.22704273021963 5 -4 -2
981 981 2 0 36.02764065657329 14.304854783491882 33.108882450640806 -1 3 2
585 585 2 0 4.907581698388219 11.103757899595855 33.300002914193136 -2 -5 -6
220 220 2 0 5.059896376219855 20.146433729006795 34.46461328016686 5 -2 1
120 120 2 0 1.011104861961971 19.308506973213575 34.88701254016941 4 -8 0
319 319 2 0 6.878767103081859 18.58010328166756 28.83129865985135 0 7 -7
581 581 2 0 45.734469111034024 14.110752554955976 35.52895783559424 -3 6 -2
272 272 2 0 10.560919714406483 15.968062940480799 29.75646157742206 3 -1 -3
148 148 2 0 6.0182928254210895 15.807481844483426 34.57359444037859 0 -4 1
1060 1010 1 0 2.3193759310675013 15.92474663732189 30.182029409276467 6 -2 -2
1055 1010 1 0 1.4481848097719863 16.58133122768433 30.95558874054459 6 -2 -2
1056 1010 1 0 1.2743762413314321 18.02192798579414 30.928435027040226 6 -2 -2
1059 1010 1 0 3.0945481566225768 16.666605801843666 29.282583305136935 6 -2 -2
535 535 2 0 21.86096142642979 2.216407581140814 31.738984137754645 -3 2 -4
986 986 2 0 37.25311610703024 22.464997118051173 29.740756046761 -1 3 4
83 83 2 0 12.52054610262544 22.117971413962366 34.550327752564144 6 1 -3
755 755 2 0 16.7645030422496 14.267263367686187 36.33489018409432 -6 6 -3
987 987 2 0 10.518427438681671 18.321396120890803 32.89343097427885 -2 1 -1
770 770 2 0 13.054583499165625 15.486107428659675 34.35691553550888 1 -4 0
122 122 2 0 14.982708922996038 12.630770494227358 32.688065630492474 6 -4 -1
1057 1010 1 0 2.039834131837706 18.710157262668357 30.083816464227624 6 -2 -2
180 180 2 0 17.438136080075175 21.66367854934784 31.009193017767146 -1 1 -6
491 491 2 0 6.206713693188614 14.254946159488707 27.725887698756868 2 -8 9
930 930 2 0 25.92976320944763 14.11954533993625 28.436603477597497 -2 3 2
262 262 2 0 24.72533301062942 18.59965316662574 28.253029965705135 5 2 1
356 356 2 0 20.2725706855115 16.464470288740234 28.211424590386674 6 4 -4
43 43 2 0 43.744174975949704 17.3854654875207 32.96002678827872 -5 4 7
685 685 2 0 21.19221274200587 16.071946549589246 33.29568710010545 0 1 -3
263 263 2 0 21.054455504633463 21.748139598974042 33.36224585217151 -3 1 -1
384 384 2 0 25.77886542294406 16.382285790378354 31.94618871471243 3 -3 3
680 680 2 0 24.81170344199168 18.169101530551643 35.571180417185076 -1 0 2
146 146 2 0 25.9724818928677 21.251667162372208 32.16939935672308 3 3 3
414 414 2 0 30.850326921334837 21.123072577338462 31.90566871590751 -3 -6 -2
850 850 2 0 34.452551394542745 21.44348875693181 33.499176346591355 6 1 -6
472 472 2 0 28.878677385753626 16.935314810176127 35.1942457997691 0 6 1
994 994 2 0 31.314741013979695 17.991938561371168 29.074282467560675 5 -2 6
978 978 2 0 36.56287262669706 18.229750918264443 34.816078166291746 0 1 -4
667 667 2 0 32.90778861789988 17.020670913660783 33.226695406649974 5 -3 3
131 131 2 0 31.449019145812613 10.975786465242438 36.169218330597495 2 -2 -1