LAMMPS data file via write_data, version 2 Aug 2023, timestep = 7000000, units = real

4808 atoms
9 atom types
2818 bonds
7 bond types
1962 angles
8 angle types
1106 dihedrals
7 dihedral types
20 impropers
1 improper types

0 57.1099555403544 xlo xhi
0 57.1099555403544 ylo yhi
0 57.1099555403544 zlo zhi

Masses

1 13.019
2 12.011
3 14.027
4 15.999
5 15.999
6 1.008
7 14.027
8 15.034
9 44.01

Pair Coeffs # lj/cut/coul/long/gpu

1 0.11 3.75
2 0.07 3.55
3 0.118 3.8
4 0.14 2.9
5 0.17 3.07
6 0 0
7 0.118 3.905
8 0.175 3.905
9 0.4692 3.72

Bond Coeffs # harmonic

1 320 1.41
2 317 1.51
3 469 1.4
4 469 1.4
5 553 0.945
6 386 1.43
7 260 1.53

Angle Coeffs # harmonic

1 60 109.5
2 50 109.5
3 70 120
4 85 120
5 85 120
6 85 120
7 55 108.5
8 70 108

Dihedral Coeffs # opls

1 0 0 0 0
2 0.65 -0.25 0.67 0
3 0 7.25 0 0
4 0 7.25 0 0
5 0 7.25 0 0
6 0 7.25 0 0
7 -0.356 -0.174 0.492 0

Improper Coeffs # harmonic

1 2.2 0

Atoms # full

1457 337 5 -0.7 13.593634711565135 7.80945676371674 4.077554258029586 0 2 -1
1458 337 6 0.435 12.671480313712532 8.069164998161039 3.8920559416893483 0 2 -1
1548 360 7 0.265 6.4654508931346415 11.86014360722286 10.805232997870883 -1 4 3
1547 360 8 0 5.899617612314367 12.979303721240848 11.673197591911713 -1 4 3
2988 720 7 0.265 9.618960152862094 13.709855899402594 13.073020124794704 -1 0 3
1670 390 6 0.435 6.93576229715934 11.327447689013812 7.617651058817275 -2 1 3
1669 390 5 -0.7 7.867977117607027 11.440024723546259 7.709607883398278 -2 1 3
1550 360 6 0.435 7.895365524741307 11.96107521043078 9.424585009717031 -1 4 3
1549 360 5 -0.7 7.724868336731032 12.30100738171583 10.304739860941845 -1 4 3
2990 720 6 0.435 8.960483212128294 12.748955861622283 11.471226753321545 -1 0 3
2989 720 5 -0.7 9.830069263311442 12.773279140737994 11.958946505119695 -1 0 3
1668 390 7 0.265 8.278716367418026 11.433506667562197 6.286635573217062 -2 1 3
1667 390 8 0 8.987891242110253 10.076591689965332 6.101336037765322 -2 1 3
1602 373 6 0.435 13.457827140740955 5.300988968407891 3.557342995829559 0 1 0
330 55 6 0.435 10.59736789492417 7.943868268548392 4.7279651300379815 1 2 -3
329 55 5 -0.7 11.054154864476715 8.332366383347575 4.015433201547977 1 2 -3
328 55 7 0.265 10.171501619530677 8.419606345947399 2.87369547551453 1 2 -3
390 70 6 0.435 6.643200356535497 4.4435813687797445 5.85855308177683 1 -1 1
388 70 7 0.265 5.377950356386682 5.73626103692288 6.669233032488862 1 -1 1
387 70 8 0 4.2605009496965875 5.2536038075388864 5.742770933035059 1 -1 1
1969 465 5 -0.7 9.695624205489713 6.4061009961807205 5.630450641982435 1 0 2
1970 465 6 0.435 8.742184438644124 6.261331878321597 5.704162805648794 1 0 2
1968 465 7 0.265 10.3657869860773 5.162507910536921 5.569366711270503 1 0 2
327 55 8 0 10.127238258312872 7.068938051827822 2.147933852313209 1 2 -3
389 70 5 -0.7 6.60564037234208 5.408799656468732 5.967498049199076 1 -1 1
1967 465 8 0 10.643102444575726 4.5543382001133494 6.902258315258961 1 0 2
3581 868 5 -0.7 5.850757109518249 2.1852018623346114 5.933616719054669 0 -1 1
4487 1689 9 0 15.85300041074609 12.05577630293641 8.483465420415945 2 3 -4
2987 720 8 0 10.256032306195845 12.924370735093351 14.21397755560808 -1 0 3
2630 630 6 0.435 5.7831748713507976 6.9676795454141285 3.952689832864183 2 1 3
2629 630 5 -0.7 5.245448548346463 7.556810033180989 3.3718725513930754 2 1 3
2628 630 7 0.265 6.068433006357384 8.645240485849099 2.8525748924486214 2 1 3
2627 630 8 0 5.754435071061732 9.939428863063409 3.5655557172819403 2 1 3
417 77 5 -0.7 5.219447783297769 10.978951041135522 7.543781796203231 -1 1 -1
416 77 7 0.265 4.427958513648915 9.79466259604358 7.328881827957991 -1 1 -1
598 122 6 0.435 3.666550421981793 7.436843470131672 2.518797243073563 -1 0 0
597 122 5 -0.7 2.7780417075520756 7.610293625622744 2.1445246026599767 -1 0 0
596 122 7 0.265 2.8190320784103498 7.357343439447892 0.7379816579962613 -1 0 0
3081 743 5 -0.7 12.343338952966626 11.176743512202343 11.868033237271009 0 1 0
1810 425 6 0.435 13.069204463876568 7.984623612514875 10.285576485507544 0 0 1
294 46 6 0.435 12.89921772742078 10.203475897829218 10.534616036073587 0 3 1
1809 425 5 -0.7 12.82956984647858 7.061365555170669 10.429035067731537 0 0 1
418 77 6 0.435 4.630201271219469 11.761274852682408 7.519591362856988 -1 1 -1
415 77 8 0 4.1083220401026415 9.074691560685569 8.68954062444949 -1 1 -1
3711 913 9 0 12.232378445337645 13.548382523908145 5.282918405857049 2 -1 2
293 46 5 -0.7 12.868559363445598 9.499653090114274 9.860407913377035 0 3 1
3082 743 6 0.435 11.60516164259037 11.679355219213043 12.36879200669564 0 1 0
3080 743 7 0.265 13.533850271465802 11.67467563567974 12.4846534855112 0 1 0
3079 743 8 0 13.85996186762095 10.931427559104131 13.75726358896024 0 1 0
292 46 7 0.265 11.72578178039285 9.72556383567154 9.027759059316114 0 3 1
291 46 8 0 11.800630410775863 11.130346661906634 8.504497730321495 0 3 1
1297 297 5 -0.7 3.8835225107293194 13.423337173937666 7.235154979066368 0 2 1
3580 868 7 0.265 5.894673786744444 2.10254680552337 7.369372144211875 0 -1 1
4649 1851 9 0 1.240869981691291 5.7739889779501725 11.0189978092598 1 -1 -1
1352 311 7 0.265 15.050811818509796 4.281530619239955 9.791044555735995 1 0 -1
1298 297 6 0.435 3.3149610434558916 14.008095549639826 6.714097071315879 0 2 1
1808 425 7 0.265 12.080096374570061 6.897123595442751 11.574912085452596 0 0 1
1354 311 6 0.435 14.105701583555982 5.987647278195728 9.46801643319968 1 0 -1
1353 311 5 -0.7 14.997526372494077 5.594627922506794 9.339419981669701 1 0 -1
1296 297 7 0.265 4.347555579085443 14.39057896228868 8.202669055228974 0 2 1
1807 425 8 0 12.857277168592432 7.2667925871502685 12.829094593853355 0 0 1
4670 1872 9 0 8.903777533654797 8.746358125655892 12.315477584332026 0 0 -1
1656 387 7 0.265 56.81634017666343 7.2842609184260185 3.8511234778565626 0 0 -1
1658 387 6 0.435 1.2367345567799823 8.028060688921414 3.14132291482035 1 0 -1
3952 1154 9 0 9.7978967902496 14.709670565010894 8.688731411487945 -2 -2 1
1657 387 5 -0.7 0.549249658012596 8.341544779172672 3.7082646655716753 1 0 -1
4042 1244 9 0 0.056083655960064836 11.650620174609893 12.249616884391534 -1 1 0
3582 868 6 0.435 6.313275278852147 1.4191131780828947 5.539583811060036 0 -1 1
3579 868 8 0 7.313345301918466 1.698228409312786 7.845438712617182 0 -1 1
2927 705 8 0 1.736907239397076 1.9122905753194903 5.385253509185849 4 3 -1
4053 1255 9 0 16.73690299974268 5.2183672748203485 13.801128500122314 0 1 0
4336 1538 9 0 15.89429542685985 14.41242205515072 0.45478999310697205 -6 0 0
4177 1379 9 0 0.09551254163387227 0.9659141291649526 9.234579828335624 -1 3 -1
4635 1837 9 0 5.486281218734691 3.989035243862796 10.641223942202663 3 1 -1
3675 892 8 0 6.062525892739145 11.055726389926866 56.756749419061784 1 1 0
4091 1293 9 0 10.436277403729521 15.878617457999766 16.805845874584588 0 -1 -1
1600 373 7 0.265 13.935502107997678 3.487269228298122 3.5439540302293056 0 1 0
1601 373 5 -0.7 13.10437462135213 4.534682221902914 3.1000522793256198 0 1 0
4010 1212 9 0 0.09507500246187076 9.023115055277637 7.984927329283442 3 0 4
2839 683 8 0 3.4955120301281153 14.62914608023967 0.9164472613287795 0 3 0
2840 683 7 0.265 4.222987903802069 15.948904984135387 0.7335133951077738 0 3 0
4303 1505 9 0 9.47262567898683 3.6295518474971833 12.451847083791055 1 0 4
1599 373 8 0 13.754471615967448 3.3511649562774912 5.068729013296889 0 1 0
2928 705 7 0.265 1.403612266738153 0.5564953390015633 4.913159852634263 4 3 -1
3676 892 7 0.265 7.464623536841117 10.638433040886582 0.03286265406786239 1 1 1
1455 337 8 0 14.108307118143852 9.6318280229424 5.549859328271775 0 2 -1
1456 337 7 0.265 14.000300917952252 8.12555388161636 5.405173147600285 0 2 -1
1351 311 8 0 13.874873346084716 3.430926831206771 9.322860381111251 1 0 -1
1151 261 8 0 8.506513037842153 14.338069189567157 3.1667639512806613 2 0 -1
4449 1651 9 0 7.467662802362706 17.075767991748055 12.804000776992428 0 -2 0
3999 1201 9 0 0.5488074000311848 12.16461034818106 16.039135104947473 3 2 -2
1410 325 6 0.435 15.015846044668244 6.754515484084837 3.3803562611628926 0 2 0
1295 297 8 0 5.819152787546914 14.718456687664313 7.930558270006017 0 2 1
3167 765 8 0 0.2689438299077994 14.923689806097979 4.726883693277822 0 1 1
3168 765 7 0.265 1.7738923958853172 14.62229438003191 4.7777123616257615 0 1 1
3169 765 5 -0.7 2.3316872951446346 15.662016482817373 5.660790822448839 0 1 1
4610 1812 9 0 2.246938616523638 1.576718352090482 17.929866321360862 1 2 -3
1696 397 7 0.265 6.152936960601254 3.395301843913813 1.7124644438444088 1 -1 2
1695 397 8 0 7.1859994145665445 3.9609708391006166 2.6769231223847343 1 -1 2
1419 328 8 0 15.307486730235162 13.86221642160122 15.586878050335692 0 1 1
1420 328 7 0.265 14.495218268302295 15.139764562373227 15.407727990184057 0 1 1
1421 328 5 -0.7 15.319265471587604 16.2580671021624 15.719975952801784 0 1 1
4627 1829 9 0 6.062473919039496 7.6983449855691095 14.83993019730114 2 -1 5
2841 683 5 -0.7 5.626574202622206 15.646473394197594 0.6236954721383066 0 3 0
2389 570 5 -0.7 9.607515725574547 14.180126340751015 56.8172417728311 1 -1 1
2390 570 6 0.435 8.664979630571542 14.264936095777397 56.53027559923333 1 -1 1
4707 1909 9 0 3.576225477785827 14.855755339233754 14.303889701773514 -2 -2 -1
3986 1188 9 0 3.46672600173991 56.79199454719429 2.2022482160832415 2 0 0
3677 892 5 -0.7 8.283535009499358 10.235762271551211 56.03449877879546 1 1 0
909 200 5 -0.7 10.738298930558916 11.810895456186476 56.55976869930137 -1 2 -3
910 200 6 0.435 10.197666613194357 12.617614722431552 56.662422948363094 -1 2 -3
163 14 8 0 10.597146791425816 3.6567601653817325 0.5134247976194095 1 0 -1
3678 892 6 0.435 9.027882999738786 10.867371652879152 56.05288735718668 1 1 0
4231 1433 9 0 18.21837416596423 11.385223432811808 5.240247889381641 -1 0 2
1114 251 6 0.435 16.664832637564434 6.05253027690459 9.925213087735411 -1 1 3
1112 251 7 0.265 17.668509085047376 7.603640578227898 10.623894896066677 -1 1 3
1111 251 8 0 16.328155941537066 8.040868066808187 11.252295026725571 -1 1 3
1113 251 5 -0.7 17.52869191210726 6.178232856301633 10.325415237641813 -1 1 3
3459 838 8 0 18.209020313553463 0.45017210543441005 4.77708968228367 1 1 0
607 125 8 0 18.3314799312332 2.2326857338983475 1.3895008703653606 1 -1 1
608 125 7 0.265 19.539601508957745 2.888416158773832 0.7797504293109163 1 -1 1
609 125 5 -0.7 19.36701600517679 4.361754057002512 0.8096441341890481 1 -1 1
1409 325 5 -0.7 15.735096159022177 6.155396215705709 3.364037951947366 0 2 0
1408 325 7 0.265 16.27489538765506 6.060130996683061 2.0564494154756825 0 2 0
1407 325 8 0 15.1204188089203 6.49854883176389 1.1066227729509905 0 2 0
610 125 6 0.435 19.65798450441163 4.715111027070604 1.6848223192256584 1 -1 1
4557 1759 9 0 22.030504565234185 10.936016252890596 1.3556709262106492 -2 2 -4
147 10 1 0 25.124803689326384 9.161531394873132 7.295799717221845 -2 -1 2
145 10 2 0 24.296511898698057 8.622757754277997 5.11398159180527 -2 -1 2
146 10 1 0 25.149436040741623 8.382207754764917 6.185218059335208 -2 -1 2
1910 450 6 0.435 19.140397156510062 4.9727887849914065 3.6710655129693004 -1 1 2
1909 450 5 -0.7 19.737933728893626 5.462984292117302 3.18028023680204 -1 1 2
1908 450 7 0.265 20.341003773552927 6.44591390909138 4.1086376753670315 -1 1 2
1907 450 8 0 19.59623159512458 7.76816393566648 3.947346428605056 -1 1 2
136 10 3 0.191 24.257630038722013 7.753721601699401 3.881897972191316 -2 -1 2
137 10 4 -0.382 24.86906019482439 6.511231440004095 4.18854843043703 -2 -1 2
138 10 3 0.191 26.1193542484645 6.404908759161162 3.622697360537279 -2 -1 2
1118 252 6 0.435 16.86516731494495 4.925048841063977 4.4218969365990395 -1 1 2
1117 252 5 -0.7 17.51976320894729 4.292465532850831 4.724315505815745 -1 1 2
1115 252 8 0 17.47010170949488 5.704561119244568 6.6100301708413545 -1 1 2
1116 252 7 0.265 17.50931715502686 4.248797698722443 6.1235743455413205 -1 1 2
4307 1509 9 0 20.867657756945505 9.676663559985542 10.497362333443 1 0 3
23 2 1 0 28.894497400523335 8.329529797981493 3.279295737492547 0 -1 1
22 2 1 0 28.936670872272398 9.54049662449705 3.989114866800492 0 -1 1
4796 1998 9 0 21.015753392730502 14.485057694237902 9.48959092642551 1 3 3
4654 1856 9 0 22.663399277891944 6.687164265406043 0.03711288235423194 -4 2 2
4088 1290 9 0 28.675154236229986 4.920773137347944 9.021691591408747 -5 -2 1
139 10 2 0 26.76645376003711 5.132381990418967 4.184294383265241 -2 -1 2
140 10 1 0 27.411186336044814 4.288309877992259 3.3071216051015293 -2 -1 2
144 10 1 0 26.474900755220258 4.750518712534572 5.468536743140738 -2 -1 2
143 10 1 0 27.215265702306358 3.682661445348243 6.012321174426944 -2 -1 2
141 10 1 0 28.038536234652717 3.2167730431873696 3.8626984049239184 -2 -1 2
4403 1605 9 0 27.215236492744722 12.241500271906222 5.389237686502474 -7 2 -1
1766 414 6 0.435 19.308718598845633 5.7590379685070205 10.62582195289932 1 1 0
1763 414 8 0 21.72131264644485 3.815142677416624 11.127648443003919 1 1 0
1764 414 7 0.265 20.624482276597742 4.391155250552575 10.297319464875935 1 1 0
1765 414 5 -0.7 20.234733694221053 5.644747310334694 10.952073725472037 1 1 0
4193 1395 9 0 23.87529042833538 5.106438818300331 8.359345415967681 3 2 0
4209 1411 9 0 22.83881876833886 11.48915996872438 13.207518999448807 -1 -1 0
2814 676 6 0.435 20.212583488723546 6.701077820276094 12.422383062177706 -1 -1 0
24 2 1 0 29.48796617444894 7.2094347052312076 3.7973047682868173 0 -1 1
21 2 1 0 29.421927645029182 9.51982142784807 5.286025309464702 0 -1 1
4566 1768 9 0 32.22046400072226 4.720231121420167 10.650287390478532 4 -3 0
1964 464 7 0.265 28.711547706176727 56.243819451868234 0.3356669342871164 -2 -1 0
19 2 2 0 30.040144041415182 7.202420419932128 5.093298508920502 0 -1 1
20 2 1 0 30.07304676300769 8.385031011005163 5.866702079527462 0 -1 1
4375 1577 9 0 28.44381064632334 0.18066104063221358 10.361464149992365 2 2 -3
4578 1780 9 0 26.902955083886017 3.663120171469526 12.817045907302813 -3 -4 0
1965 464 5 -0.7 29.77141725016236 57.10969421766843 56.92733213911724 -2 -1 -1
148 10 1 0 24.171870430940075 10.129622668219943 7.408512287993618 -2 -1 2
3460 838 7 0.265 17.051826391267724 0.377267402111143 5.720002406312574 1 1 0
1963 464 8 0 28.276183573611835 56.96637751840279 1.582229471602488 -2 -1 0
150 10 1 0 23.25516213627285 9.539726268523168 5.291523054372082 -2 -1 2
149 10 1 0 23.14692090224929 10.209113772363567 6.47597063399369 -2 -1 2
2401 573 5 -0.7 18.28348056988254 16.01382153881241 14.936685914962498 -1 0 -1
4797 1999 9 0 28.849914520533936 9.219480351354806 11.899357680462629 3 -3 1
3899 1101 9 0 21.0626849154082 2.6880924852485752 6.721794974650021 -1 3 0
2438 582 6 0.435 18.42253307103742 7.992690880951635 14.24658698929491 1 -1 0
2813 676 5 -0.7 20.019275780058614 7.120929691989097 13.267843269433264 -1 -1 0
3198 772 6 0.435 31.147576412141326 56.82589949143795 56.34216558683508 1 -1 0
1422 328 6 0.435 16.22456133400613 16.129140976955036 15.419137715327755 0 1 1
4540 1742 9 0 24.290988339323334 1.614605706763449 4.696710232664253 -6 3 0
2812 676 7 0.265 20.761321254761082 6.2779105707072995 14.177600150402943 -1 -1 0
3912 1114 9 0 25.53436564401777 7.727061662222035 10.71610664679423 0 -2 4
142 10 1 0 27.91647116563358 2.8494492837625978 5.176477510980617 -2 -1 2
1463 339 8 0 29.218417639963423 13.641737534784141 13.81019464767191 1 -1 0
1464 339 7 0.265 29.975033926866185 14.274796966114891 12.63879862705805 1 -1 0
2436 582 7 0.265 18.138746907788125 9.887482016965633 14.114557726605259 1 -1 0
2437 582 5 -0.7 17.68044956162643 8.598578231431418 14.369758460457781 1 -1 0
4331 1533 9 0 24.961656089356506 55.90415724869307 12.767267009912258 6 0 3
1465 339 5 -0.7 31.291309374442676 13.681253232316974 12.659873046857484 1 -1 0
3731 933 9 0 17.185191575239617 12.9130519433047 12.205529827386986 0 -3 3
2435 582 8 0 19.439032763485812 10.079879794710866 14.887021468832726 1 -1 0
4436 1638 9 0 14.856711646815194 6.023624510572694 17.16960140775849 -3 0 -1
2811 676 8 0 22.249503450101095 6.637871816524276 14.240006281059337 -1 -1 0
4718 1920 9 0 23.8154114694523 0.41295143300839104 8.175762476390355 0 1 1
3758 960 9 0 28.68027446407578 12.458271998784081 1.884152279824164 4 2 -2
4626 1828 9 0 30.11886837167749 12.721168668781628 9.042944350306417 -1 3 1
3764 966 9 0 26.032921946644496 15.824385476679826 3.550574831813672 3 0 2
4497 1699 9 0 22.523675441966223 15.519077864605352 6.1122902984572045 3 -2 0
4323 1525 9 0 26.131540422012552 13.702959805023912 8.942057152826031 0 1 -3
3730 932 9 0 20.37724975410863 14.51890464699755 2.9208663167370066 0 0 3
1466 339 6 0.435 31.537767744243116 14.005811089033717 11.79757245002157 1 -1 0
2258 537 6 0.435 18.340837106701063 0.872590249863118 8.475544523497174 -1 0 1
2256 537 7 0.265 17.487123844372064 0.328714493539983 10.124171004372341 -1 0 1
2257 537 5 -0.7 18.356187998963883 1.221508704095421 9.393072917855225 -1 0 1
4269 1471 9 0 29.85902656606781 55.02524608161573 5.604751131823988 3 -2 -4
3461 838 5 -0.7 17.55100833900598 57.01047243699465 6.981902422638857 1 0 0
3163 764 8 0 29.01714138392894 6.202636945501546 14.907814059677067 -1 1 0
3164 764 7 0.265 28.960874054242613 4.891853904327583 15.618579915324853 -1 1 0
2408 575 7 0.265 22.30940216732311 14.923878899899304 16.30887242369496 -2 2 2
2409 575 5 -0.7 20.910729608745864 15.06527555730751 16.171677316875133 -2 2 2
18 2 3 0.191 30.38476093933809 5.8902022511226795 5.736645425168265 0 -1 1
1027 230 8 0 32.71835008886669 10.383360095253554 13.630748192665159 -2 2 0
1023 229 8 0 31.890238834319796 54.929648343363304 8.70032835375643 0 -2 0
17 2 4 -0.382 31.539056401017067 5.3096307331156 5.219950704748345 0 -1 1
3950 1152 9 0 35.673425092786786 1.9253282692218838 9.71277368733423 1 3 0
4611 1813 9 0 31.72666986969205 0.7618767015065223 3.351392317459563 -1 3 -2
16 2 3 0.191 32.14953449483965 4.4445676061959 6.2660458918012445 0 -1 1
4002 1204 9 0 36.229227426970716 6.261649083410716 10.210234903340483 0 -8 0
471 91 8 0 36.112478621894084 56.67267842713437 12.479094292454835 1 1 2
26 2 1 0 33.92317206818468 5.019592303994098 4.582383729006643 0 -1 1
4397 1599 9 0 34.699980948975316 10.051136456827935 10.041457182286077 1 2 2
4479 1681 9 0 38.36406648223002 5.1385107774874 13.329341925831674 2 5 0
4498 1700 9 0 33.484993319839944 5.536811978149045 14.770972352094315 3 2 1
29 2 1 0 35.66578220025136 5.9901779907927075 6.513101207272133 0 -1 1
25 2 2 0 33.61428127561426 4.874624881565523 5.9280551592237725 0 -1 1
30 2 1 0 34.48862489137103 5.387655369427416 6.883472631443412 0 -1 1
3705 907 9 0 47.34791306890436 3.9099628582818013 10.634334052967349 4 1 1
76 6 3 0.191 46.25551517793611 13.083765500912731 6.765469512385578 1 0 1
85 6 2 0 44.75709250682662 12.727275083602219 6.535386778890887 1 0 1
4320 1522 9 0 47.58225540030423 10.665870076644769 3.5724542784153903 -2 2 1
86 6 1 0 44.49444381874833 11.508895372175546 5.8651760464028335 1 0 1
87 6 1 0 43.12359423133522 11.263940899822556 5.667661985862338 1 0 1
77 6 4 -0.382 46.73002635252651 14.075629198464938 5.858698114476833 1 0 1
78 6 3 0.191 48.127895892406244 13.880034742685456 5.7988885526113245 1 0 1
90 6 1 0 43.79879479065354 13.55037065952897 7.187283444286429 1 0 1
88 6 1 0 42.11017693865227 12.086986708555383 6.245871943092498 1 0 1
89 6 1 0 42.425742348249365 13.16441401795068 7.079228737768737 1 0 1
4344 1546 9 0 43.5003499240273 10.570144957239851 16.958147599703764 -4 -1 1
1794 421 6 0.435 45.51476774442216 15.423356592928858 5.917572393923624 0 -1 1
1793 421 5 -0.7 45.04542113071825 16.22802190924869 5.634429196008143 0 -1 1
3562 863 6 0.435 43.761833768249765 17.05842080843321 6.523174157198407 0 2 1
4638 1840 9 0 43.466850189537354 4.835684833657668 9.973269072781704 0 -1 -2
1792 421 7 0.265 45.66290531228903 16.94479385537102 4.523583484865021 0 -1 1
4492 1694 9 0 43.95486319455201 14.381711763602476 13.995726249694178 -2 2 1
1244 284 7 0.265 40.73219246427208 10.915706267266867 13.859160313969731 1 0 1
1245 284 5 -0.7 40.44090208454312 11.995062649079669 14.824263850595472 1 0 1
1791 421 8 0 45.7006618495925 15.970307910011051 3.3288086920989732 0 -1 1
3776 978 9 0 39.739740303020824 8.521255226163468 5.135511511530255 -2 1 5
724 154 7 0.265 48.36938263375408 2.3879872715730603 13.492629960371778 -1 1 1
3752 954 9 0 38.60268151750033 8.859365760588801 9.010092795932035 -1 7 -2
4322 1524 9 0 42.48585672702176 7.8132387997065 8.048654714882115 2 1 -3
27 2 1 0 35.15305402986193 5.654681822048097 4.151044438006233 0 -1 1
4082 1284 9 0 44.35248546819941 9.835056246409549 10.553095530858359 3 2 1
80 6 1 0 49.1642378175595 16.156411701920497 5.376868853870828 1 0 1
28 2 1 0 35.993514878767705 5.993939209261593 5.16134533517046 0 -1 1
4469 1671 9 0 39.483646971379486 54.19986222048997 8.779919221092618 -1 -4 3
1246 284 6 0.435 39.51887783930582 12.253712625945232 14.940201246269549 1 0 1
4064 1266 9 0 35.869815926071276 1.9666067215575294 3.2553669030220047 0 4 -4
3027 730 8 0 38.328742486093965 13.898070304285289 5.703636856956333 0 -1 2
2804 674 7 0.265 36.40224136632472 12.8745063201886 14.825145651532075 -1 3 -2
3028 730 7 0.265 38.12399501396937 12.535964485564424 6.4205499748768835 0 -1 2
2803 674 8 0 36.45506879210059 13.958565963537021 13.692103654467626 -1 3 -2
2805 674 5 -0.7 37.75064354729077 12.440214253759313 15.171007485232842 -1 3 -2
2147 510 8 0 45.78567720878017 2.2087543464717365 6.0742263109767975 0 1 0
1855 437 8 0 40.62211420077892 1.7722043855844094 7.943057336481178 2 1 1
1856 437 7 0.265 41.721703264509884 1.4734136833772347 6.913058082746772 2 1 1
2150 510 6 0.435 43.612186691481334 3.909851482705787 6.13439806844546 0 1 0
2148 510 7 0.265 45.49076777619658 3.4994670466994267 6.738319690870649 0 1 0
4429 1631 9 0 46.830224612165104 15.328846793273916 11.241961811832073 3 1 1
2071 491 8 0 43.49123618705938 7.3100696791071895 4.259314701681366 2 1 0
2072 491 7 0.265 44.94800668540339 6.89022300182685 4.06622955017027 2 1 0
1857 437 5 -0.7 42.20852862268844 2.6744765574094127 6.26050599131022 2 1 1
1858 437 6 0.435 41.50815855767886 2.958899634911247 5.679889489790308 2 1 1
3917 1119 9 0 38.324389772008836 11.297062902579944 1.0785737119044705 -1 1 -4
4525 1727 9 0 46.326784807728366 7.534697549130234 12.97072024270119 0 3 0
1631 381 8 0 40.07881656791095 14.722396311069664 11.786007022165512 1 0 2
1632 381 7 0.265 40.05447811961581 14.075634196199776 10.414982010960246 1 0 2
1634 381 6 0.435 40.62856330874455 15.629872730391805 9.2361065396455 1 0 2
1633 381 5 -0.7 39.7873494233183 15.15375349110553 9.523305022981768 1 0 2
3785 987 9 0 44.83609866982933 1.9734877168543232 14.314093994981977 0 -2 -1
1243 284 8 0 39.681750042119845 10.837087248457413 12.771661992824738 1 0 1
2149 510 5 -0.7 44.472727162384324 4.2512705067528165 5.997553197549378 0 1 0
2074 491 6 0.435 44.70788317504693 4.97228509585521 4.518534232679369 2 1 0
295 47 8 0 32.413366988942364 5.138689406245594 0.5341115923062902 0 -2 2
2073 491 5 -0.7 44.98307807463086 5.5243906253201684 3.755494497165894 2 1 0
3078 742 6 0.435 41.33045196659109 4.263697629944893 3.9918727132600873 -1 1 1
3077 742 5 -0.7 40.47389959202369 4.038425491774664 4.369933823065801 -1 1 1
982 218 6 0.435 45.911107089664675 5.439447768848114 2.048611282997412 -1 2 1
3540 858 7 0.265 33.86266994453101 12.758687958576852 5.571828291893765 -3 1 1
3539 858 8 0 32.6729211904993 13.324359638476441 4.8280597161681715 -3 1 1
4691 1893 9 0 45.63216933931427 56.065349191911935 12.043423465633072 -1 -1 1
4067 1269 9 0 36.117621000105935 8.92249550324635 13.929915751071125 0 -1 3
3123 754 8 0 44.726727208977636 6.3089367475940765 16.56188850283772 1 1 -1
2806 674 6 0.435 37.976578531204666 12.902166058663365 15.980945460246662 -1 3 -2
3822 1024 9 0 34.66039305463504 10.310975514673764 2.7595729501890927 0 -2 -1
997 222 5 -0.7 31.32131932342697 8.046229595321526 56.61814314517684 -1 -1 1
998 222 6 0.435 32.25899906599705 7.768274201402017 56.70561106456874 -1 -1 1
296 47 7 0.265 33.62509887185771 5.434993234962874 56.80646172569854 0 -2 1
297 47 5 -0.7 33.716492290376365 6.835510627887919 56.42294210894859 0 -2 1
3076 742 7 0.265 39.445390732598675 4.330580599288495 3.3864688767155062 -1 1 1
3075 742 8 0 39.790484970573345 5.572345693751003 2.622571436529804 -1 1 1
794 171 6 0.435 45.3264759907206 4.120946552726768 0.251993033299145 -1 0 -1
981 218 5 -0.7 45.77772101068618 5.4929422866355155 1.1013852378440319 -1 2 1
3029 730 5 -0.7 36.80293715633262 12.464215033139842 7.0419634375940605 0 -1 2
660 138 7 0.265 36.299207830895135 15.287533972042638 8.887779864265873 -1 0 1
1758 412 6 0.435 33.964914683396586 15.764005311291275 5.899170466126535 3 2 1
3541 858 5 -0.7 34.79169145690228 13.858541200831034 5.712762490693301 -3 1 1
3542 858 6 0.435 35.57582133977424 13.54944814792793 6.185757889838113 -3 1 1
3030 730 6 0.435 36.937216989632304 12.183012429012841 7.936107805730302 0 -1 2
1199 273 8 0 43.1818432774126 1.7415568818507319 1.9503079671313113 -1 1 0
1200 273 7 0.265 43.234240643448594 2.47011736668533 3.294568804699408 -1 1 0
1201 273 5 -0.7 42.82961301711424 3.8491282546954246 3.1241851852034515 -1 1 0
1202 273 6 0.435 43.59343915904678 4.271457795564841 2.664179587678211 -1 1 0
464 89 7 0.265 32.282962389507844 1.0112734081900043 15.696353048501756 -1 3 0
1030 230 6 0.435 32.036249107232166 12.691297074112814 13.753121504058088 -2 2 0
1904 449 7 0.265 41.16785790822181 1.2539860811733667 15.946312834201338 1 2 1
1028 230 7 0.265 32.44097196527206 11.094324631319916 14.948023187143628 -2 2 0
4207 1409 9 0 48.0633169452897 11.40617892497075 12.456169020783141 2 4 1
1029 230 5 -0.7 32.53746319748328 12.492224377621634 14.592226854941446 -2 2 0
2899 698 8 0 43.78418156279928 12.348705131513105 0.5550014718504257 -1 1 0
995 222 8 0 31.77193478312163 10.32094464490743 0.006807193597074324 -1 -1 2
2900 698 7 0.265 45.281277738033474 12.57042185178893 0.909806913753323 -1 1 0
298 47 6 0.435 34.54538672912634 6.85049371511017 55.971823580171026 0 -2 1
1655 387 8 0 0.3675579632096119 5.986608693732433 4.265762854781942 1 0 -1
4318 1520 9 0 0.42824223645700277 11.823335089901093 0.3319463098497051 1 -1 2
3987 1189 9 0 56.42905320435801 8.045240797136783 15.598929010605861 4 0 -2
2929 705 5 -0.7 0.007916026701386154 0.5418711357813812 4.539526038097346 4 3 -1
3391 821 8 0 0.4169633055383381 2.9219453292650037 1.6796500886280499 0 0 1
79 6 2 0 48.79473828087908 15.169835150616223 6.229668239890419 1 0 1
84 6 1 0 49.064648742642916 15.231195479391896 7.607400412046769 1 0 1
725 154 5 -0.7 48.322626391937426 0.9485583621778422 13.405397312328756 -1 1 1
723 154 8 0 49.72707468682152 2.9751450041387355 13.143535797753112 -1 1 1
81 6 1 0 49.79125631880759 17.305581787957077 5.9198195444995445 1 0 1
726 154 6 0.435 48.593674780303395 0.7836041494855978 12.532586641091738 -1 1 1
1087 245 8 0 52.41423169283098 5.04721469845567 9.488924401609232 0 3 -1
4756 1958 9 0 52.501175005438256 11.270453952725983 13.469682853485608 2 2 2
3874 1076 9 0 2.9331921064421747 0.2756114013547695 13.543227689143997 4 -4 -2
1386 319 6 0.435 48.748284622130406 13.571307799237342 1.4581629500478688 -1 1 1
1385 319 5 -0.7 49.28911104590498 13.674519695315196 2.2246815001174487 -1 1 1
1384 319 7 0.265 50.56406637767439 13.09639797229861 1.9482613189387976 -1 1 1
821 178 5 -0.7 49.10717259127042 56.9702112418417 10.868202940824945 0 -3 -1
1088 245 7 0.265 51.45617464502219 4.664316451499339 8.341014859122136 0 3 -1
1089 245 5 -0.7 52.06399472153485 5.347572269228462 7.22954846439622 0 3 -1
3872 1074 9 0 52.795562524684726 13.919912941851221 8.603598361493582 0 -2 4
999 223 8 0 49.32019722589915 6.297141775796168 4.948602889671088 2 2 -1
1383 319 8 0 50.643767713542594 12.794658888155503 0.4284287579599262 -1 1 1
1000 223 7 0.265 49.506318664594566 7.6596921993048355 5.7190153087704285 2 2 -1
2174 516 6 0.435 50.58875919283104 8.721995480587374 8.055403895911823 -1 0 1
819 178 8 0 50.88478065456663 1.0999988968693812 9.936422977614304 0 -2 -1
820 178 7 0.265 49.544359466725226 0.45089838782655106 9.679051345838294 0 -2 -1
2173 516 5 -0.7 50.24824515044558 9.070519395564045 8.850768195007301 -1 0 1
2172 516 7 0.265 50.34139975990274 10.49041333445752 8.694011338216326 -1 0 1
2171 516 8 0 48.89871269402897 11.066289611116378 8.530904398035217 -1 0 1
3809 1011 9 0 0.37352696295859406 13.221456298988816 8.458881733053754 1 4 -1
3905 1107 9 0 52.91281290983826 0.22745574729519402 13.147344252687729 2 -2 3
1002 223 6 0.435 51.041600357916224 6.857260048456627 6.663038447566723 2 2 -1
1001 223 5 -0.7 50.77208141114633 7.754653596966677 6.464070668280891 2 2 -1
2117 502 5 -0.7 53.305346606112316 9.280094090472524 7.084239135462473 1 0 3
2118 502 6 0.435 52.874229370700334 8.597920272612791 6.563945056582476 1 0 3
2116 502 7 0.265 54.214691466092624 9.960831446358554 6.160571181647702 1 0 3
1090 245 6 0.435 53.004702649356354 5.514344860164427 7.301437252542659 0 3 -1
2115 502 8 0 53.67361470190379 9.711057096511528 4.741614822014138 1 0 3
1701 398 5 -0.7 54.758847573363994 5.916413245804593 7.235725674613659 0 0 1
1700 398 7 0.265 55.88355033821426 5.028519963868073 7.287207445456068 0 0 1
1702 398 6 0.435 54.90799482241123 6.596704624918485 7.880183662197699 0 0 1
1699 398 8 0 55.460104167335345 3.548420725234366 7.035991514972554 0 0 1
1617 377 5 -0.7 54.294108238349565 7.936430511627546 9.295614101011399 -3 1 0
1616 377 7 0.265 54.10971278067084 8.71570073148735 10.487717337793304 -3 1 0
1618 377 6 0.435 53.99582730488572 8.563162508245819 8.560312751540646 -3 1 0
1615 377 8 0 54.67427136583351 7.922559238499567 11.702892022338217 -3 1 0
4555 1757 9 0 50.86091119077158 8.874542778025308 2.461648921901336 -1 3 3
809 175 5 -0.7 53.85518184094305 15.593153087653022 16.05524823828188 3 2 -1
2750 660 6 0.435 53.96770761463251 2.9041016896847704 3.451949707492602 0 0 -1
2749 660 5 -0.7 52.97609305051091 2.988019042871138 3.560045300027724 0 0 -1
3393 821 5 -0.7 55.55099051176555 2.4871848596790445 2.951101457265099 -1 0 1
3394 821 6 0.435 55.82232467257332 1.7404331265961033 3.5094182852792923 -1 0 1
3392 821 7 0.265 56.023677560126856 2.4543903880345037 1.5532301833989313 -1 0 1