LAMMPS data file
# Generated by Playmol on 31-May-2025 at 14:06:25

9 atom types
7 bond types
8 angle types
7 dihedral types
1 improper types

4808 atoms
2818 bonds
1962 angles
1106 dihedrals
20 impropers

-40.0000000 40.0000000 xlo xhi
-40.0000000 40.0000000 ylo yhi
-40.0000000 40.0000000 zlo zhi

Masses

1 13.019 # cd
2 12.011 # ca
3 14.027 # c21
4 15.999 # os1
5 15.999 # O
6 1.008 # H
7 14.027 # CH2
8 15.034 # CH3
9 44.010 # co2

# Elements: N? C? N? O? O? H? N? O? Sc?

Pair Coeffs # lj/cut/coul/long

1 0.110 3.75 # cd
2 0.070 3.55 # ca
3 0.118 3.80 # c21
4 0.140 2.90 # os1
5 0.17 3.07 # O
6 0.00 0.00 # H
7 0.1180 3.9050 # CH2
8 0.1750 3.9050 # CH3
9 0.4692 3.720 # co2

Bond Coeffs # harmonic

1 320.0 1.410 # os1 c21
2 317.0 1.510 # c21 ca
3 469.0 1.400 # ca cd
4 469.0 1.400 # cd cd
5 553.0 0.945 # O H
6 386.0 1.430 # CH2 O
7 260.0 1.530 # CH3 CH2

Angle Coeffs # harmonic

1 60.0 109.5 # c21 os1 c21
2 50.0 109.5 # os1 c21 ca
3 70.0 120.0 # c21 ca cd
4 85.0 120.0 # ca cd cd
5 85.0 120.0 # cd ca cd
6 85.0 120.0 # cd cd cd
7 55.0 108.5 # CH2 O H
8 70.0 108.0 # CH3 CH2 O

Dihedral Coeffs # opls

1 0.000 0.000 0.000 0.00 # os1 c21 ca cd
2 0.650 -0.250 0.670 0.00 # c21 os1 c21 ca
3 0.000 7.25 0.000 0.00 # c21 ca cd cd
4 0.000 7.25 0.000 0.00 # cd cd cd cd
5 0.000 7.25 0.000 0.00 # ca cd cd cd
6 0.000 7.25 0.000 0.00 # cd ca cd cd
7 -0.356 -0.174 0.492 0.000 # CH3 CH2 O H

Improper Coeffs # harmonic

1 2.2 0 # ca c21 cd cd

Atoms

1 1 3 0.191 -13.8733034 -8.58574581 30.7725296 # C00
2 1 4 -0.382 -12.5964537 -8.35919571 31.3608379 # O01
3 1 3 0.191 -11.6465673 -7.86785412 30.4195061 # C02
4 1 2 0.0 -10.3171377 -7.65010977 31.1004086 # C03
5 1 1 0.0 -9.12679195 -7.78491402 30.3720951 # C04
6 1 1 0.0 -7.89010286 -7.58414507 30.9897213 # C05
7 1 1 0.0 -7.82942104 -7.24775314 32.3405342 # C06
8 1 1 0.0 -9.00659370 -7.11135197 33.0735245 # C07
9 1 1 0.0 -10.2437267 -7.25876617 32.4459991 # C08
10 1 2 0.0 -14.8563480 -9.10772133 31.7951984 # C09
11 1 1 0.0 -14.4992599 -9.32063770 33.1353989 # C0A
12 1 1 0.0 -15.4312973 -9.80491257 34.0546265 # C0B
13 1 1 0.0 -16.7335892 -10.0827694 33.6453781 # C0C
14 1 1 0.0 -17.1011543 -9.87587357 32.3181381 # C0D
15 1 1 0.0 -16.1721611 -9.39238453 31.3985538 # C0E
16 2 3 0.191 12.5791035 9.79854488 -1.08257794 # C00
17 2 4 -0.382 11.1802387 9.54617500 -0.997352004 # O01
18 2 3 0.191 10.6022482 9.26774693 -2.26943994 # C02
19 2 2 0.0 9.12282944 9.01158047 -2.11412406 # C03
20 2 1 0.0 8.24375534 9.32749176 -3.15957189 # C04
21 2 1 0.0 6.87280512 9.09355259 -3.02942395 # C05
22 2 1 0.0 6.36579084 8.54285336 -1.85417902 # C06
23 2 1 0.0 7.23089409 8.22529602 -0.809013009 # C07
24 2 1 0.0 8.60584927 8.40829277 -0.957435012 # C08
25 2 2 0.0 13.1609936 10.0919790 0.281235993 # C09
26 2 1 0.0 12.3753281 10.0997620 1.44383895 # C0A
27 2 1 0.0 12.9439211 10.3758173 2.68830395 # C0B
28 2 1 0.0 14.3066387 10.6478624 2.78651404 # C0C
29 2 1 0.0 15.0978174 10.6433191 1.64043701 # C0D
30 2 1 0.0 14.5322065 10.3679352 0.396782011 # C0E
31 3 3 0.191 -22.4711761 -32.4224510 -15.9121771 # C00
32 3 4 -0.382 -23.0322189 -33.0106468 -14.7429752 # O01
33 3 3 0.191 -24.3231373 -33.5640335 -14.9819202 # C02
34 3 2 0.0 -24.8641434 -34.1686554 -13.7090597 # C03
35 3 1 0.0 -26.2472610 -34.2024574 -13.4823999 # C04
36 3 1 0.0 -26.7609577 -34.7609444 -12.3096352 # C05
37 3 1 0.0 -25.8991013 -35.2903214 -11.3512526 # C06
38 3 1 0.0 -24.5227356 -35.2616806 -11.5666981 # C07
39 3 1 0.0 -24.0109177 -34.7531319 -12.7606163 # C08
40 3 2 0.0 -21.1046524 -31.8436222 -15.6253710 # C09
41 3 1 0.0 -20.5168915 -31.9083576 -14.3528452 # C0A
42 3 1 0.0 -19.2532806 -31.3626575 -14.1211271 # C0B
43 3 1 0.0 -18.5603752 -30.7446632 -15.1596928 # C0C
44 3 1 0.0 -19.1322632 -30.6736069 -16.4275131 # C0D
45 3 1 0.0 -20.3938770 -31.2178173 -16.6611767 # C0E
46 4 3 0.191 21.7601738 12.1658573 -17.2937393 # C00
47 4 4 -0.382 21.3648071 11.3775663 -16.1756783 # O01
48 4 3 0.191 19.9486141 11.2700348 -16.0632496 # C02
49 4 2 0.0 19.5932865 10.4272718 -14.8624506 # C03
50 4 1 0.0 18.3945885 10.6597824 -14.1735439 # C04
51 4 1 0.0 18.0529823 9.88574123 -13.0620880 # C05
52 4 1 0.0 18.9049187 8.87267113 -12.6268530 # C06
53 4 1 0.0 20.0987549 8.63337708 -13.3044329 # C07
54 4 1 0.0 20.4160423 9.36948681 -14.4461374 # C08
55 4 2 0.0 23.2659397 12.2620363 -17.3837700 # C09
56 4 1 0.0 24.1123447 11.6341553 -16.4573021 # C0A
57 4 1 0.0 25.4993706 11.7437954 -16.5683708 # C0B
58 4 1 0.0 26.0585423 12.4832687 -17.6081562 # C0C
59 4 1 0.0 25.2298565 13.1114426 -18.5345211 # C0D
60 4 1 0.0 23.8446236 13.0033178 -18.4255733 # C0E
61 5 3 0.191 -19.9700146 -18.8867378 25.6784115 # C00
62 5 4 -0.382 -19.4699478 -19.5175514 24.5037708 # O01
63 5 3 0.191 -18.4081764 -20.4243469 24.7869148 # C02
64 5 2 0.0 -17.9209404 -21.0574837 23.5062256 # C03
65 5 1 0.0 -16.5823879 -21.4571419 23.3875484 # C04
66 5 1 0.0 -16.1192627 -22.0460758 22.2086334 # C05
67 5 1 0.0 -16.9874344 -22.2410221 21.1363449 # C06
68 5 1 0.0 -18.3197479 -21.8473320 21.2439117 # C07
69 5 1 0.0 -18.7967415 -21.3083439 22.4388943 # C08
70 5 2 0.0 -21.0923252 -17.9309444 25.3443928 # C09
71 5 1 0.0 -21.5401459 -17.7333717 24.0293255 # C0A
72 5 1 0.0 -22.5785980 -16.8420734 23.7547321 # C0B
73 5 1 0.0 -23.1832848 -16.1362000 24.7923965 # C0C
74 5 1 0.0 -22.7484665 -16.3229504 26.1021805 # C0D
75 5 1 0.0 -21.7117290 -17.2124138 26.3786945 # C0E
76 6 3 0.191 20.4351025 11.2199879 11.4014692 # C00
77 6 4 -0.382 21.5681229 10.5249567 11.9123240 # O01
78 6 3 0.191 21.2478218 9.73185444 13.0517092 # C02
79 6 2 0.0 22.4856834 9.02386665 13.5465574 # C03
80 6 1 0.0 22.6209717 8.71889496 14.9082556 # C04
81 6 1 0.0 23.7604980 8.06222343 15.3788214 # C05
82 6 1 0.0 24.7765121 7.70434999 14.4949799 # C06
83 6 1 0.0 24.6520004 8.00286198 13.1396189 # C07
84 6 1 0.0 23.4915257 8.61034584 12.6597443 # C08
85 6 2 0.0 20.8079948 12.0524588 10.1962166 # C09
86 6 1 0.0 22.1168022 12.0944223 9.69199944 # C0A
87 6 1 0.0 22.4281387 12.8747053 8.57735825 # C0B
88 6 1 0.0 21.4339848 13.6237564 7.95187092 # C0C
89 6 1 0.0 20.1308804 13.5910578 8.44210243 # C0D
90 6 1 0.0 19.8177261 12.8126402 9.55494976 # C0E
91 7 3 0.191 -24.1822968 14.1731672 -29.9035854 # C00
92 7 4 -0.382 -25.3125324 13.6555576 -30.5981522 # O01
93 7 3 0.191 -24.9609032 13.0886726 -31.8570423 # C02
94 7 2 0.0 -26.1971951 12.5608463 -32.5436325 # C03
95 7 1 0.0 -26.2660122 12.5403423 -33.9437675 # C04
96 7 1 0.0 -27.4034309 12.0526114 -34.5915070 # C05
97 7 1 0.0 -28.4836197 11.5814276 -33.8480606 # C06
98 7 1 0.0 -28.4254589 11.5974512 -32.4559479 # C07
99 7 1 0.0 -27.2698059 12.0340691 -31.8079910 # C08
100 7 2 0.0 -24.5885162 14.7683172 -28.5748749 # C09
101 7 1 0.0 -25.9214306 14.7796144 -28.1364765 # C0A
102 7 1 0.0 -26.2632294 15.3383904 -26.9039421 # C0B
103 7 1 0.0 -25.2758408 15.8935528 -26.0930710 # C0C
104 7 1 0.0 -23.9490337 15.8888483 -26.5161972 # C0D
105 7 1 0.0 -23.6054459 15.3314428 -27.7465134 # C0E
106 8 3 0.191 -0.594281971 -34.7185593 2.35834789 # C00
107 8 4 -0.382 0.768155992 -34.3354759 2.51578093 # O01
108 8 3 0.191 1.08263803 -33.9967575 3.86343694 # C02
109 8 2 0.0 2.53512311 -33.5988464 3.96530294 # C03
110 8 1 0.0 2.94117498 -32.6727219 4.93635893 # C04
111 8 1 0.0 4.28249502 -32.2975426 5.04252291 # C05
112 8 1 0.0 5.23146677 -32.8424034 4.17990112 # C06
113 8 1 0.0 4.83840799 -33.7636604 3.21118808 # C07
114 8 1 0.0 3.50890207 -34.1797905 3.13861609 # C08
115 8 2 0.0 -0.895880997 -35.0692749 0.919345975 # C09
116 8 1 0.0 8.07889998E-02 -35.0070915 -8.62519965E-02 # C0A
117 8 1 0.0 -0.231094003 -35.3366966 -1.40620899 # C0B
118 8 1 0.0 -1.52468002 -35.7331314 -1.73806405 # C0C
119 8 1 0.0 -2.50351405 -35.7991524 -0.749629974 # C0D
120 8 1 0.0 -2.19434690 -35.4704971 0.569018006 # C0E
121 9 3 0.191 -11.8521032 -19.8791904 -10.3379068 # C00
122 9 4 -0.382 -11.5104485 -19.1409130 -9.16915035 # O01
123 9 3 0.191 -10.9026814 -19.9571533 -8.17206573 # C02
124 9 2 0.0 -10.5666084 -19.1207981 -6.96128416 # C03
125 9 1 0.0 -10.5620489 -19.7041321 -5.68643808 # C04
126 9 1 0.0 -10.2508230 -18.9418087 -4.55809021 # C05
127 9 1 0.0 -9.94199371 -17.5895996 -4.69108200 # C06
128 9 1 0.0 -9.94373226 -17.0000362 -5.95363092 # C07
129 9 1 0.0 -10.2017078 -17.7716351 -7.08681297 # C08
130 9 2 0.0 -12.4956369 -18.9864788 -11.3740606 # C09
131 9 1 0.0 -12.7026129 -17.6158791 -11.1558876 # C0A
132 9 1 0.0 -13.3010082 -16.8193836 -12.1334944 # C0B
133 9 1 0.0 -13.7005110 -17.3834858 -13.3429728 # C0C
134 9 1 0.0 -13.5009003 -18.7425289 -13.5723839 # C0D
135 9 1 0.0 -12.9035883 -19.5397491 -12.5976591 # C0E
136 10 3 0.191 32.2820435 -25.7991371 -15.9971914 # C00
137 10 4 -0.382 31.0009155 -25.2032642 -15.8199158 # O01
138 10 3 0.191 30.7339516 -24.8901653 -14.4559126 # C02
139 10 2 0.0 29.3654423 -24.2652969 -14.3328552 # C03
140 10 1 0.0 28.6214848 -24.4343510 -13.1566391 # C04
141 10 1 0.0 27.3547211 -23.8596935 -13.0291700 # C05
142 10 1 0.0 26.8177795 -23.1114502 -14.0748091 # C06
143 10 1 0.0 27.5489044 -22.9373779 -15.2481689 # C07
144 10 1 0.0 28.8356037 -23.4652367 -15.3567343 # C08
145 10 2 0.0 32.5335922 -26.1205845 -17.4525547 # C09
146 10 1 0.0 31.5900593 -25.8439445 -18.4536495 # C0A
147 10 1 0.0 31.8532829 -26.1545696 -19.7887230 # C0B
148 10 1 0.0 33.0644035 -26.7463017 -20.1404228 # C0C
149 10 1 0.0 34.0096016 -27.0261536 -19.1566734 # C0D
150 10 1 0.0 33.7489090 -26.7168484 -17.8229580 # C0E
151 11 8 0.000 -35.4251099 -13.5595131 27.5170231 # CG2
152 11 7 0.265 -35.5970039 -14.9751492 28.0570431 # CB
153 11 5 -0.700 -36.9688873 -15.3382339 28.2384758 # OG1
154 11 6 0.435 -37.3420525 -14.7213650 28.8894958 # HG1
155 12 8 0.000 1.00091696 -31.0997829 -38.6914330 # CG2
156 12 7 0.265 -8.89500044E-03 -32.1791153 -38.3165741 # CB
157 12 5 -0.700 -1.34556997 -31.6791039 -38.2160606 # OG1
158 12 6 0.435 -1.34613705 -31.0100555 -37.5118027 # HG1
159 13 8 0.000 -27.0327759 5.14887524 -23.4071999 # CG2
160 13 7 0.265 -26.4064617 5.74290323 -24.6642036 # CB
161 13 5 -0.700 -27.1522350 5.44888878 -25.8491898 # OG1
162 13 6 0.435 -27.1612453 4.48241377 -25.9464073 # HG1
163 14 8 0.000 -20.7528572 22.4719048 -25.1333828 # CG2
164 14 7 0.265 -22.0491734 22.2381649 -25.9015751 # CB
165 14 5 -0.700 -22.5069580 23.4067955 -26.5882721 # OG1
166 14 6 0.435 -22.6761818 24.0845947 -25.9133224 # HG1
167 15 8 0.000 -12.8393126 32.2249985 17.8711510 # CG2
168 15 7 0.265 -12.0170956 31.0638599 18.4197006 # CB
169 15 5 -0.700 -12.3373156 29.8144798 17.8005714 # OG1
170 15 6 0.435 -13.2730770 29.6354103 17.9900188 # HG1
171 16 8 0.000 26.0644836 -10.3261681 -23.8148975 # CG2
172 16 7 0.265 24.7623997 -9.93233109 -24.5038567 # CB
173 16 5 -0.700 23.8043575 -10.9945154 -24.5309544 # OG1
174 16 6 0.435 24.2023869 -11.7229548 -25.0354843 # HG1
175 17 8 0.000 -34.3717232 17.9878712 8.69212723 # CG2
176 17 7 0.265 -33.7167740 19.0891838 7.86547995 # CB
177 17 5 -0.700 -32.6169586 18.6167526 7.08187914 # OG1
178 17 6 0.435 -31.9535484 18.2724800 7.70233917 # HG1
179 18 8 0.000 5.15699291 18.8072529 3.39001989 # CG2
180 18 7 0.265 6.64710808 19.1122494 3.49831796 # CB
181 18 5 -0.700 6.91780996 20.5055256 3.67808890 # OG1
182 18 6 0.435 6.57366610 20.9649582 2.89444900 # HG1
183 19 8 0.000 -22.5371876 -4.30770493 -1.84530997 # CG2
184 19 7 0.265 -23.8485527 -3.80464101 -2.43898106 # CB
185 19 5 -0.700 -23.7087975 -3.34564209 -3.78679395 # OG1
186 19 6 0.435 -23.0825443 -2.60325289 -3.77032399 # HG1
187 20 8 0.000 -18.2098484 37.2613907 -12.0539694 # CG2
188 20 7 0.265 -19.1967068 36.6095657 -13.0164804 # CB
189 20 5 -0.700 -18.5590324 36.0295715 -14.1583176 # OG1
190 20 6 0.435 -18.1114235 36.7509499 -14.6304026 # HG1
191 21 8 0.000 28.9355335 -14.6583176 12.2903671 # CG2
192 21 7 0.265 29.5298538 -13.8834352 13.4614916 # CB
193 21 5 -0.700 28.8370819 -12.6603136 13.7276840 # OG1
194 21 6 0.435 28.9176083 -12.1094570 12.9316454 # HG1
195 22 8 0.000 -33.8633232 -23.6215706 14.1783047 # CG2
196 22 7 0.265 -34.5513916 -24.9734554 14.3337355 # CB
197 22 5 -0.700 -33.6313934 -26.0399837 14.5845985 # OG1
198 22 6 0.435 -33.0396461 -26.0910835 13.8159447 # HG1
199 23 8 0.000 2.31553292 36.4385338 -33.0846291 # CG2
200 23 7 0.265 3.66061091 36.1405869 -33.7382240 # CB
201 23 5 -0.700 3.62570906 34.9843712 -34.5801048 # OG1
202 23 6 0.435 3.39259195 34.2290764 -34.0154877 # HG1
203 24 8 0.000 -2.43594003 15.8794374 -31.5591030 # CG2
204 24 7 0.265 -1.68951595 14.9199419 -32.4796524 # CB
205 24 5 -0.700 -1.36939895 15.5013475 -33.7470551 # OG1
206 24 6 0.435 -2.21077490 15.7330093 -34.1736984 # HG1
207 25 8 0.000 -28.4198418 11.1733904 3.67488408 # CG2
208 25 7 0.265 -27.4815598 12.1158056 4.42098999 # CB
209 25 5 -0.700 -26.9642277 11.5456600 5.62685680 # OG1
210 25 6 0.435 -27.7245541 11.3613005 6.20263290 # HG1
211 26 8 0.000 -37.0280838 -15.6893883 -7.36086082 # CG2
212 26 7 0.265 -36.9537964 -16.1251583 -8.82023716 # CB
213 26 5 -0.700 -35.8418121 -15.5532084 -9.51534653 # OG1
214 26 6 0.435 -35.9601479 -14.5892496 -9.49568272 # HG1
215 27 8 0.000 -4.25220203 11.2241030 1.88526297 # CG2
216 27 7 0.265 -3.99682093 12.7229719 1.76965594 # CB
217 27 5 -0.700 -5.19302511 13.4751291 1.54566801 # OG1
218 27 6 0.435 -5.56745815 13.1686916 0.703348994 # HG1
219 28 8 0.000 4.43311024 -7.41262484 12.3125639 # CG2
220 28 7 0.265 2.95082593 -7.13730383 12.0840359 # CB
221 28 5 -0.700 2.55984902 -7.29751301 10.7171841 # OG1
222 28 6 0.435 3.06830192 -6.65209007 10.1990042 # HG1
223 29 8 0.000 3.91834807 9.78609562 -3.41491699 # CG2
224 29 7 0.265 2.71174312 10.7024002 -3.24262190 # CB
225 29 5 -0.700 3.07383204 12.0807419 -3.11661100 # OG1
226 29 6 0.435 3.62518311 12.1577406 -2.32056594 # HG1
227 30 8 0.000 9.48772430 -5.50954199 -18.3781166 # CG2
228 30 7 0.265 10.4925270 -6.64724016 -18.2324886 # CB
229 30 5 -0.700 11.0255966 -6.75221014 -16.9089947 # OG1
230 30 6 0.435 11.4873466 -5.91828680 -16.7220116 # HG1
231 31 8 0.000 30.6013527 20.1425304 -37.5485802 # CG2
232 31 7 0.265 29.5847282 20.9835262 -36.7841225 # CB
233 31 5 -0.700 29.9929981 21.2653732 -35.4422264 # OG1
234 31 6 0.435 30.0795288 20.4118061 -34.9866562 # HG1
235 32 8 0.000 13.3408642 11.8402586 11.8485823 # CG2
236 32 7 0.265 13.8424091 10.5907488 12.5643845 # CB
237 32 5 -0.700 15.0168333 10.8310108 13.3452921 # OG1
238 32 6 0.435 15.7105598 11.1241980 12.7317848 # HG1
239 33 8 0.000 30.6959152 -26.5212345 18.6885777 # CG2
240 33 7 0.265 31.5072536 -25.2814827 19.0490494 # CB
241 33 5 -0.700 32.9149628 -25.4683075 18.8750648 # OG1
242 33 6 0.435 33.1820564 -26.1859608 19.4727612 # HG1
243 34 8 0.000 32.1226692 -2.69930506 -35.5456657 # CG2
244 34 7 0.265 31.2207985 -3.01665092 -36.7335663 # CB
245 34 5 -0.700 29.8476868 -2.69709110 -36.4901390 # OG1
246 34 6 0.435 29.5582314 -3.24175501 -35.7396965 # HG1
247 35 8 0.000 -33.8574257 20.4298458 30.7068768 # CG2
248 35 7 0.265 -33.7752571 21.8425331 31.2749901 # CB
249 35 5 -0.700 -35.0552902 22.3750935 31.6281376 # OG1
250 35 6 0.435 -35.5829849 22.4095840 30.8133068 # HG1
251 36 8 0.000 -12.1229324 26.7668514 -4.83443022 # CG2
252 36 7 0.265 -12.8153172 27.8767052 -4.05083513 # CB
253 36 5 -0.700 -11.9390764 28.9615154 -3.73114491 # OG1
254 36 6 0.435 -11.2298374 28.5990925 -3.17505598 # HG1
255 37 8 0.000 -25.5647907 5.17466497 10.5476389 # CG2
256 37 7 0.265 -26.1361732 6.58377790 10.4330997 # CB
257 37 5 -0.700 -27.4974575 6.59768105 9.99318409 # OG1
258 37 6 0.435 -27.5143623 6.19429922 9.10966778 # HG1
259 38 8 0.000 23.6073208 2.91376495 35.5202675 # CG2
260 38 7 0.265 22.8783588 1.78080904 36.2345657 # CB
261 38 5 -0.700 21.9799614 1.07015502 35.3774376 # OG1
262 38 6 0.435 21.3150864 1.70869195 35.0711403 # HG1
263 39 8 0.000 38.7511597 24.7738647 30.1056633 # CG2
264 39 7 0.265 38.5159225 23.9297638 28.8577232 # CB
265 39 5 -0.700 37.9307938 24.6741333 27.7851791 # OG1
266 39 6 0.435 37.0684853 24.9932899 28.0984993 # HG1
267 40 8 0.000 -21.4142094 15.3898125 10.3558836 # CG2
268 40 7 0.265 -22.6999531 16.2045918 10.4463644 # CB
269 40 5 -0.700 -22.4722290 17.6142635 10.3581390 # OG1
270 40 6 0.435 -21.9086914 17.8583965 11.1107540 # HG1
271 41 8 0.000 -31.9698219 4.25850004E-02 23.0335236 # CG2
272 41 7 0.265 -30.5788536 -0.580205023 22.9831676 # CB
273 41 5 -0.700 -29.5316772 0.388576001 23.0913372 # OG1
274 41 6 0.435 -29.6198177 0.987809002 22.3318920 # HG1
275 42 8 0.000 16.6744976 27.6463146 -26.8068047 # CG2
276 42 7 0.265 15.2393770 28.1076565 -27.0365601 # CB
277 42 5 -0.700 15.0946112 28.9092579 -28.2126942 # OG1
278 42 6 0.435 15.6471777 29.6984062 -28.0881233 # HG1
279 43 8 0.000 -26.6159439 -34.1115532 -6.50272083 # CG2
280 43 7 0.265 -26.8254089 -34.1542702 -8.01251984 # CB
281 43 5 -0.700 -28.2058296 -34.0980225 -8.38412380 # OG1
282 43 6 0.435 -28.6354294 -34.8796844 -7.99935007 # HG1
283 44 8 0.000 12.8240404 -24.8440971 5.15967894 # CG2
284 44 7 0.265 11.4711208 -24.7301197 4.46555185 # CB
285 44 5 -0.700 11.4005718 -25.4918690 3.25659609 # OG1
286 44 6 0.435 12.0765228 -25.1356106 2.65678310 # HG1
287 45 8 0.000 21.9117336 -38.7441597 -29.4965897 # CG2
288 45 7 0.265 22.9495201 -37.6289978 -29.5644321 # CB
289 45 5 -0.700 24.0068989 -37.9088707 -30.4866257 # OG1
290 45 6 0.435 24.4513493 -38.7137146 -30.1731033 # HG1
291 46 8 0.000 23.1555958 -5.11778498 7.90593004 # CG2
292 46 7 0.265 22.9925232 -3.69540095 7.38112020 # CB
293 46 5 -0.700 23.1137962 -2.70659804 8.40794754 # OG1
294 46 6 0.435 22.4026108 -2.87357998 9.04821014 # HG1
295 47 8 0.000 -36.0582428 27.2177124 -33.3116951 # CG2
296 47 7 0.265 -34.7064362 26.5748711 -33.0208931 # CB
297 47 5 -0.700 -33.6374474 27.1676941 -33.7642899 # OG1
298 47 6 0.435 -33.8374214 27.0332432 -34.7053185 # HG1
299 48 8 0.000 -23.3914108 11.3710546 -18.3653641 # CG2
300 48 7 0.265 -22.6257610 12.0915918 -17.2609177 # CB
301 48 5 -0.700 -21.2198792 12.1649036 -17.5157433 # OG1
302 48 6 0.435 -20.8917618 11.2517633 -17.5617638 # HG1
303 49 8 0.000 -10.6172543 -18.0901928 -25.9260674 # CG2
304 49 7 0.265 -9.15087509 -18.4161835 -26.1880913 # CB
305 49 5 -0.700 -8.92712402 -18.9630871 -27.4910297 # OG1
306 49 6 0.435 -9.43233490 -19.7912083 -27.5418530 # HG1
307 50 8 0.000 -1.08156002 13.1837034 -16.2265396 # CG2
308 50 7 0.265 -8.22610036E-02 14.0409069 -15.4572563 # CB
309 50 5 -0.700 -4.87929992E-02 13.7367010 -14.0597038 # OG1
310 50 6 0.435 -0.935339987 13.9206772 -13.7078619 # HG1
311 51 8 0.000 -8.86390877 3.50760794 -35.5507431 # CG2
312 51 7 0.265 -7.78588295 2.43343997 -35.6467438 # CB
313 51 5 -0.700 -6.74994802 2.76684093 -36.5754509 # OG1
314 51 6 0.435 -7.16772699 2.85153198 -37.4483147 # HG1
315 52 8 0.000 -26.3150425 -7.12161016 -38.6497192 # CG2
316 52 7 0.265 -25.8768024 -6.13540506 -37.5724335 # CB
317 52 5 -0.700 -26.2371731 -6.55640507 -36.2534561 # OG1
318 52 6 0.435 -27.2064438 -6.61592102 -36.2294006 # HG1
319 53 8 0.000 14.2094612 -12.3453932 33.1868515 # CG2
320 53 7 0.265 13.5222931 -10.9890108 33.0718613 # CB
321 53 5 -0.700 12.7136612 -10.8732128 31.8973331 # OG1
322 53 6 0.435 13.3056393 -10.9753571 31.1339645 # HG1
323 54 8 0.000 21.3134708 -4.33598995 -26.8967457 # CG2
324 54 7 0.265 20.5899296 -5.67536020 -26.8086147 # CB
325 54 5 -0.700 19.2451153 -5.61371899 -27.2928562 # OG1
326 54 6 0.435 18.7702389 -4.97864914 -26.7318001 # HG1
327 55 8 0.000 37.7411880 -20.1685829 -21.6677227 # CG2
328 55 7 0.265 36.3254738 -19.6272640 -21.5006466 # CB
329 55 5 -0.700 35.9411812 -19.4893532 -20.1294727 # OG1
330 55 6 0.435 35.9715500 -20.3767719 -19.7355518 # HG1
331 56 8 0.000 -2.14376211 2.01434398 -29.3655910 # CG2
332 56 7 0.265 -3.17464900 2.67341709 -30.2755852 # CB
333 56 5 -0.700 -3.30437994 2.01342201 -31.5382767 # OG1
334 56 6 0.435 -2.43923593 2.06698108 -31.9767551 # HG1
335 57 8 0.000 -28.1973915 27.7953892 37.4763832 # CG2
336 57 7 0.265 -27.6175785 28.4005299 38.7502823 # CB
337 57 5 -0.700 -26.2976398 28.9213142 38.5676346 # OG1
338 57 6 0.435 -25.7323494 28.1762466 38.3050957 # HG1
339 58 8 0.000 -17.6674595 -17.9731293 2.06942296 # CG2
340 58 7 0.265 -16.6121826 -17.2556934 2.90421295 # CB
341 58 5 -0.700 -16.2398796 -17.9859753 4.07676983 # OG1
342 58 6 0.435 -17.0401058 -18.0783539 4.61963987 # HG1
343 59 8 0.000 -32.4087486 -6.22496605 -25.3364944 # CG2
344 59 7 0.265 -33.3523941 -5.94090223 -24.1728630 # CB
345 59 5 -0.700 -33.2535324 -4.59703302 -23.6921806 # OG1
346 59 6 0.435 -32.3429375 -4.47464705 -23.3768253 # HG1
347 60 8 0.000 -25.7625828 -16.1549225 -23.4161224 # CG2
348 60 7 0.265 -26.6016464 -15.6550779 -24.5871563 # CB
349 60 5 -0.700 -26.5462074 -16.5245304 -25.7219658 # OG1
350 60 6 0.435 -25.6189327 -16.5571022 -26.0095482 # HG1
351 61 8 0.000 -26.8187904 -14.1054888 -1.91427600 # CG2
352 61 7 0.265 -26.1464787 -13.2908163 -0.814504981 # CB
353 61 5 -0.700 -24.7412796 -13.5412989 -0.717103004 # OG1
354 61 6 0.435 -24.6350250 -14.4823685 -0.500989974 # HG1
355 62 8 0.000 4.56779480 29.9894047 32.6855392 # CG2
356 62 7 0.265 3.92662001 29.4656143 33.9660606 # CB
357 62 5 -0.700 4.37752581 30.1548882 35.1358452 # OG1
358 62 6 0.435 5.33593702 30.0097752 35.1990623 # HG1
359 63 8 0.000 3.48781705 3.98921990 -21.5760307 # CG2
360 63 7 0.265 2.25368309 3.79765296 -20.7011528 # CB
361 63 5 -0.700 2.51416993 3.00662589 -19.5378647 # OG1
362 63 6 0.435 2.80095601 2.13183308 -19.8478565 # HG1
363 64 8 0.000 10.1824532 -1.01276898 -5.25031614 # CG2
364 64 7 0.265 8.86367607 -1.73202896 -4.98823595 # CB
365 64 5 -0.700 8.97329617 -2.74621391 -3.98512793 # OG1
366 64 6 0.435 9.61230564 -3.40078712 -4.31194019 # HG1
367 65 8 0.000 19.4426632 -36.4948616 3.70739508 # CG2
368 65 7 0.265 19.9945431 -35.3641891 4.56890821 # CB
369 65 5 -0.700 21.4244118 -35.3166504 4.57462406 # OG1
370 65 6 0.435 21.7348785 -36.1577415 4.94850206 # HG1
371 66 8 0.000 -29.7562447 -20.8285313 -2.20206308 # CG2
372 66 7 0.265 -30.6513824 -21.9831066 -1.76516604 # CB
373 66 5 -0.700 -29.9392834 -23.0008812 -1.05533504 # OG1
374 66 6 0.435 -29.2687054 -23.3543453 -1.66278195 # HG1
375 67 8 0.000 -6.51898098 -31.7094212 6.01196718 # CG2
376 67 7 0.265 -5.62759399 -32.9415092 5.89980412 # CB
377 67 5 -0.700 -6.37028599 -34.1498718 5.71249914 # OG1
378 67 6 0.435 -6.93633890 -34.2592049 6.49431515 # HG1
379 68 8 0.000 -3.70516491 22.7495651 16.8457470 # CG2
380 68 7 0.265 -5.12091017 22.4844666 17.3463287 # CB
381 68 5 -0.700 -5.90647078 23.6757450 17.4491024 # OG1
382 68 6 0.435 -5.46376801 24.2530174 18.0928230 # HG1
383 69 8 0.000 -7.90718603 -24.0965500 4.44474506 # CG2
384 69 7 0.265 -6.99222708 -24.4637909 5.60800600 # CB
385 69 5 -0.700 -6.40532112 -25.7607536 5.46573400 # OG1
386 69 6 0.435 -7.13496923 -26.4016495 5.44396782 # HG1
387 70 8 0.000 -17.9342880 -0.441206992 18.6409893 # CG2
388 70 7 0.265 -16.7480755 -0.317202002 17.6908760 # CB
389 70 5 -0.700 -15.8190022 0.694666028 18.0905781 # OG1
390 70 6 0.435 -16.2987461 1.53929496 18.0834332 # HG1
391 71 8 0.000 10.3023643 -5.99760914 -37.3245468 # CG2
392 71 7 0.265 8.83512115 -5.99157810 -36.9093895 # CB
393 71 5 -0.700 7.94713402 -6.24593782 -38.0019073 # OG1
394 71 6 0.435 8.07931614 -5.53202677 -38.6472473 # HG1
395 72 8 0.000 7.56803703 -19.0535297 35.8773155 # CG2
396 72 7 0.265 6.86091518 -20.1156921 36.7121735 # CB
397 72 5 -0.700 7.69331408 -20.6594696 37.7408752 # OG1
398 72 6 0.435 8.45094395 -21.0789490 37.3008347 # HG1
399 73 8 0.000 26.4408836 -7.50013113 35.3874168 # CG2
400 73 7 0.265 26.5366974 -6.22610521 36.2198067 # CB
401 73 5 -0.700 25.7508011 -6.28178120 37.4139900 # OG1
402 73 6 0.435 24.8254471 -6.39225721 37.1399117 # HG1
403 74 8 0.000 7.98899960E-03 -9.35356522 -1.35885406 # CG2
404 74 7 0.265 1.06343901 -9.76833439 -2.37825894 # CB
405 74 5 -0.700 2.39930606 -9.54155159 -1.91908300 # OG1
406 74 6 0.435 2.48864508 -8.58640766 -1.76636398 # HG1
407 75 8 0.000 -26.6294537 -22.8105965 -13.9571848 # CG2
408 75 7 0.265 -25.6117687 -21.6751022 -13.9444628 # CB
409 75 5 -0.700 -24.2608242 -22.1383057 -14.0293655 # OG1
410 75 6 0.435 -24.1013126 -22.6929779 -13.2480211 # HG1
411 76 8 0.000 -7.39782095 21.0484982 1.08643794 # CG2
412 76 7 0.265 -6.73509979 21.5380821 2.36952090 # CB
413 76 5 -0.700 -5.88479996 22.6693077 2.15944409 # OG1
414 76 6 0.435 -5.18412209 22.3881016 1.54823303 # HG1
415 77 8 0.000 -10.9865828 14.0285501 -29.9829178 # CG2
416 77 7 0.265 -11.9151773 15.2080116 -30.2508316 # CB
417 77 5 -0.700 -12.6047096 15.1002512 -31.4997272 # OG1
418 77 6 0.435 -11.9285297 15.0862904 -32.1970024 # HG1
419 78 8 0.000 -0.215775996 -35.3893814 9.91961765 # CG2
420 78 7 0.265 -1.25455797 -36.3688889 9.38418102 # CB
421 78 5 -0.700 -2.46198893 -35.7253685 8.96608067 # OG1
422 78 6 0.435 -2.83664203 -35.2887726 9.74878311 # HG1
423 79 8 0.000 -37.4791603 21.3283768 -9.44490528 # CG2
424 79 7 0.265 -38.3002281 22.6109352 -9.36690903 # CB
425 79 5 -0.700 -38.2820930 23.3577614 -10.5870457 # OG1
426 79 6 0.435 -37.3575058 23.6031837 -10.7558985 # HG1
427 80 8 0.000 -34.9445686 19.0195618 -13.7678013 # CG2
428 80 7 0.265 -34.1023827 20.2907486 -13.7673225 # CB
429 80 5 -0.700 -34.8942223 21.4822903 -13.7725782 # OG1
430 80 6 0.435 -35.4193153 21.4705372 -14.5897350 # HG1
431 81 8 0.000 -21.6563606 30.5340195 26.4038467 # CG2
432 81 7 0.265 -20.5109158 31.2068634 25.6552277 # CB
433 81 5 -0.700 -19.5886021 30.2696075 25.0915775 # OG1
434 81 6 0.435 -19.2092113 29.7654972 25.8301868 # HG1
435 82 8 0.000 -5.14180899 -31.5957470 -5.37025023 # CG2
436 82 7 0.265 -5.62361622 -33.0393219 -5.46590996 # CB
437 82 5 -0.700 -4.55060196 -33.9855309 -5.45396423 # OG1
438 82 6 0.435 -4.00040007 -33.8005905 -6.23286104 # HG1
439 83 8 0.000 20.0928249 24.6860275 27.1773911 # CG2
440 83 7 0.265 20.1757278 26.2082863 27.1450653 # CB
441 83 5 -0.700 18.8897514 26.8352451 27.1447353 # OG1
442 83 6 0.435 18.4314766 26.5425377 26.3398056 # HG1
443 84 8 0.000 16.1491776 -4.26150608 -11.2028332 # CG2
444 84 7 0.265 14.9890261 -5.07274103 -11.7695246 # CB
445 84 5 -0.700 14.0603819 -4.27363682 -12.5083523 # OG1
446 84 6 0.435 13.6952019 -3.61881304 -11.8907318 # HG1
447 85 8 0.000 10.8381901 28.2167702 10.3869972 # CG2
448 85 7 0.265 10.5557508 28.1226025 11.8825092 # CB
449 85 5 -0.700 9.34307480 28.7801628 12.2617807 # OG1
450 85 6 0.435 9.44613361 29.7189293 12.0344028 # HG1
451 86 8 0.000 4.34562492 12.1065540 29.2267189 # CG2
452 86 7 0.265 4.18080711 10.7141323 28.6273937 # CB
453 86 5 -0.700 4.23417616 10.7143116 27.1977196 # OG1
454 86 6 0.435 3.49655700 11.2643023 26.8862171 # HG1
455 87 8 0.000 -7.50021076 6.94707584 -23.3330784 # CG2
456 87 7 0.265 -6.72280502 7.88989401 -22.4209766 # CB
457 87 5 -0.700 -7.54260683 8.91566658 -21.8530617 # OG1
458 87 6 0.435 -7.89701700 9.43734169 -22.5918827 # HG1
459 88 8 0.000 -8.16841888 21.7368183 34.6162567 # CG2
460 88 7 0.265 -9.67121029 21.5158405 34.4821625 # CB
461 88 5 -0.700 -10.4422483 22.5059395 35.1692009 # OG1
462 88 6 0.435 -10.2123547 22.4417152 36.1108093 # HG1
463 89 8 0.000 -7.20319971E-02 33.6985931 6.04968023 # CG2
464 89 7 0.265 1.28146505 34.3978386 6.11524677 # CB
465 89 5 -0.700 1.52997994 35.2354698 4.98236084 # OG1
466 89 6 0.435 1.52643895 34.6614456 4.19871998 # HG1
467 90 8 0.000 0.921711981 6.91609192 36.9413757 # CG2
468 90 7 0.265 0.644258022 5.67168093 37.7778282 # CB
469 90 5 -0.700 -0.717130005 5.23941278 37.6967125 # OG1
470 90 6 0.435 -1.26561296 5.96235704 38.0433044 # HG1
471 91 8 0.000 3.12237692 -23.8348408 21.5653057 # CG2
472 91 7 0.265 2.46630812 -22.7589722 22.4239521 # CB
473 91 5 -0.700 1.03874803 -22.7665062 22.3299904 # OG1
474 91 6 0.435 0.814436018 -22.5878658 21.4018879 # HG1
475 92 8 0.000 -15.5987120 20.6074066 6.01004601 # CG2
476 92 7 0.265 -14.2195501 19.9857235 6.20140505 # CB
477 92 5 -0.700 -13.1932707 20.6780033 5.48424911 # OG1
478 92 6 0.435 -13.4191961 20.6224957 4.54112482 # HG1
479 93 8 0.000 36.6238976 4.73280907 -0.189496994 # CG2
480 93 7 0.265 36.9057770 3.26465011 -0.489906996 # CB
481 93 5 -0.700 35.7578392 2.56773901 -0.983226001 # OG1
482 93 6 0.435 35.0811729 2.60709500 -0.287396997 # HG1
483 94 8 0.000 6.27590084 -24.4636822 -16.0098705 # CG2
484 94 7 0.265 4.89283085 -25.0877876 -15.8588648 # CB
485 94 5 -0.700 3.83494401 -24.1791000 -16.1782036 # OG1
486 94 6 0.435 3.89940596 -23.4377441 -15.5538301 # HG1
487 95 8 0.000 -9.22554302 4.54628706 -2.78972411 # CG2
488 95 7 0.265 -9.26668644 3.08442307 -2.35791898 # CB
489 95 5 -0.700 -10.5634909 2.49797797 -2.50350404 # OG1
490 95 6 0.435 -11.1670256 2.99757695 -1.92926395 # HG1
491 96 8 0.000 22.2717667 3.90289497 -23.0397396 # CG2
492 96 7 0.265 22.0280170 5.17887306 -23.8382778 # CB
493 96 5 -0.700 22.9424191 5.33647680 -24.9272404 # OG1
494 96 6 0.435 23.8336811 5.38778019 -24.5443268 # HG1
495 97 8 0.000 -38.2019463 20.5261078 35.8202629 # CG2
496 97 7 0.265 -37.1774750 21.0748787 34.8330956 # CB
497 97 5 -0.700 -36.6966972 22.3728924 35.1948013 # OG1
498 97 6 0.435 -37.4631577 22.9696751 35.1946335 # HG1
499 98 8 0.000 26.8935604 -1.15648198 30.3186302 # CG2
500 98 7 0.265 26.4816303 0.310853988 30.2693043 # CB
501 98 5 -0.700 27.5011005 1.15666103 29.7288361 # OG1
502 98 6 0.435 28.2725258 1.08108103 30.3143272 # HG1
503 99 8 0.000 -22.0200024 -28.7930679 21.1485214 # CG2
504 99 7 0.265 -23.2162056 -29.6489277 20.7462788 # CB
505 99 5 -0.700 -24.4698696 -29.0232735 21.0355854 # OG1
506 99 6 0.435 -24.5056553 -28.8905945 21.9972095 # HG1
507 100 8 0.000 -25.4763145 19.9498405 -6.45441103 # CG2
508 100 7 0.265 -26.7459755 19.1077728 -6.39054918 # CB
509 100 5 -0.700 -26.6606236 17.9129543 -7.17281389 # OG1
510 100 6 0.435 -26.5281315 18.1865864 -8.09540558 # HG1
511 101 8 0.000 32.8349380 31.9135475 -14.5971851 # CG2
512 101 7 0.265 34.0352478 31.4354305 -13.7873373 # CB
513 101 5 -0.700 34.1683578 32.1160049 -12.5359716 # OG1
514 101 6 0.435 34.2979698 33.0574341 -12.7372618 # HG1
515 102 8 0.000 21.7708092 -29.7808590 -21.5343609 # CG2
516 102 7 0.265 20.5818691 -29.3201981 -22.3706665 # CB
517 102 5 -0.700 19.4861431 -30.2393131 -22.3329296 # OG1
518 102 6 0.435 19.8064861 -31.0782337 -22.7033348 # HG1
519 103 8 0.000 30.6306019 -9.62985134 36.2091980 # CG2
520 103 7 0.265 31.5683842 -10.3846455 35.2732277 # CB