LAMMPS data file
# Generated by Playmol on 13-Mar-2025 at 16:20:36

4 atom types
5 bond types
6 angle types
6 dihedral types
1 improper types

13900 atoms
13800 bonds
15600 angles
15500 dihedrals
1900 impropers

-45.0000000 45.0000000 xlo xhi
-45.0000000 45.0000000 ylo yhi
-45.0000000 45.0000000 zlo zhi

Masses

1 12.011 # C
2 13.019 # CH
3 15.034 # CH3
4 14.027 # CH2

# Elements: C? N? O? N?

Pair Coeffs # lj/cut

1 0.0700 3.5500 # C
2 0.1100 3.7500 # CH
3 0.1750 3.9050 # CH3
4 0.1180 3.9050 # CH2

Bond Coeffs # harmonic

1 469.0 1.400 # CH C
2 469.0 1.400 # CH CH
3 317.0 1.510 # CH3 C
4 260.0 1.526 # CH3 CH2
5 260.0 1.526 # CH2 CH2

Angle Coeffs # harmonic

1 85.0 120.0 # C CH CH
2 85.0 120.0 # CH C CH
3 85.0 120.0 # CH CH CH
4 85.0 120.0 # CH C CH3
5 63.0 112.4 # CH2 CH2 CH2
6 63.0 112.4 # CH3 CH2 CH2

Dihedral Coeffs # opls

1 1.411 -0.271 3.145 0.00 # CH3 CH2 CH2 CH2
2 1.411 -0.271 3.145 0.00 # CH2 CH2 CH2 CH2
3 0.000 7.25 0.000 0.00 # CH CH CH CH
4 0.000 7.25 0.000 0.00 # CH CH CH C
5 0.000 7.25 0.000 0.00 # CH CH C CH
6 0.000 7.25 0.000 0.00 # CH CH C CH3

Improper Coeffs # harmonic

1 2.2 0 # C CH3 CH CH

Atoms

1 1 3 0.0 1.12498796 -38.8665276 -20.8389473 # C1H
2 1 4 0.0 1.54408598 -39.5255547 -22.1600246 # C2H
3 1 4 0.0 2.19847488 -40.9099579 -22.0077553 # C3H
4 1 4 0.0 3.60290599 -40.8835068 -21.3849182 # C4H
5 1 4 0.0 4.21090412 -42.2712212 -21.1191082 # C5H
6 1 3 0.0 4.44759893 -43.1374702 -22.3662186 # C6H
7 2 3 0.0 31.8783665 6.67673206 35.5380516 # C1H
8 2 4 0.0 30.5502281 7.43276405 35.6783028 # C2H
9 2 4 0.0 30.6951866 8.93752670 35.9658165 # C3H
10 2 4 0.0 31.2210693 9.26776505 37.3713226 # C4H
11 2 4 0.0 31.4824810 10.7628136 37.6214447 # C5H
12 2 3 0.0 30.2459679 11.6715441 37.5381470 # C6H
13 3 3 0.0 -27.3525887 5.81671095 -19.8786716 # C1H
14 3 4 0.0 -26.0365295 5.41967010 -20.5609875 # C2H
15 3 4 0.0 -24.8301964 6.30050802 -20.1910286 # C3H
16 3 4 0.0 -24.8865719 7.72645903 -20.7607079 # C4H
17 3 4 0.0 -23.7456188 8.64689445 -20.2947731 # C5H
18 3 3 0.0 -22.3327789 8.20866108 -20.7113438 # C6H
19 4 3 0.0 -19.3111000 21.2938957 40.5228386 # C1H
20 4 4 0.0 -20.3514233 21.8624058 41.4973793 # C2H
21 4 4 0.0 -21.3809299 22.8099232 40.8568268 # C3H
22 4 4 0.0 -20.8084946 24.1667366 40.4181595 # C4H
23 4 4 0.0 -21.8039608 25.0687675 39.6688576 # C5H
24 4 3 0.0 -23.0358448 25.5054798 40.4772148 # C6H
25 5 3 0.0 9.41752243 -16.6924572 -24.4920673 # C1H
26 5 4 0.0 7.94539690 -16.9967327 -24.1830864 # C2H
27 5 4 0.0 6.93449497 -16.1504593 -24.9767399 # C3H
28 5 4 0.0 6.88543892 -14.6702633 -24.5672722 # C4H
29 5 4 0.0 5.96633291 -13.7960911 -25.4374084 # C5H
30 5 3 0.0 4.47611094 -14.1701021 -25.4050026 # C6H
31 6 3 0.0 37.3320122 9.23354435 -13.6748199 # C1H
32 6 4 0.0 38.7618904 9.46794319 -14.1804934 # C2H
33 6 4 0.0 39.0747414 10.9234228 -14.5699720 # C3H
34 6 4 0.0 38.3682823 11.4050722 -15.8466787 # C4H
35 6 4 0.0 38.5812035 12.8931370 -16.1728592 # C5H
36 6 3 0.0 40.0345078 13.3049660 -16.4556999 # C6H
37 7 3 0.0 14.8355780 35.7810593 21.0173454 # C1H
38 7 4 0.0 16.2886696 36.1944466 21.2872314 # C2H
39 7 4 0.0 17.3304386 35.0956879 21.0125771 # C3H
40 7 4 0.0 17.3029823 33.9300575 22.0133801 # C4H
41 7 4 0.0 18.2582073 32.7731323 21.6740723 # C5H
42 7 3 0.0 19.7524338 33.1321907 21.6663971 # C6H
43 8 3 0.0 -39.0219765 39.3865623 2.76627707 # C1H
44 8 4 0.0 -39.9580879 40.3840256 3.46195698 # C2H
45 8 4 0.0 -41.3089142 40.5964813 2.75618196 # C3H
46 8 4 0.0 -41.2170639 41.3587112 1.42516100 # C4H
47 8 4 0.0 -42.5455627 41.4676018 0.657504022 # C5H
48 8 3 0.0 -43.6607475 42.2434692 1.37589800 # C6H
49 9 3 0.0 25.6953278 29.5958538 -0.583868027 # C1H
50 9 4 0.0 26.7589073 30.5059032 -1.21300197 # C2H
51 9 4 0.0 28.2060337 30.0073452 -1.05409503 # C3H
52 9 4 0.0 28.7508602 30.0858345 0.380497009 # C4H
53 9 4 0.0 30.1511898 29.4772663 0.567010999 # C5H
54 9 3 0.0 31.2778931 30.1603584 -0.223950997 # C6H
55 10 3 0.0 -25.1826515 32.2417145 43.7403374 # C1H
56 10 4 0.0 -25.2354832 32.7133026 42.2808762 # C2H
57 10 4 0.0 -26.0920906 31.8343201 41.3526497 # C3H
58 10 4 0.0 -25.4924164 30.4509678 41.0563774 # C4H
59 10 4 0.0 -26.3997746 29.5243855 40.2292061 # C5H
60 10 3 0.0 -26.7339649 30.0204544 38.8136024 # C6H
61 11 3 0.0 30.7246056 -2.62770001E-02 -8.66136169 # C1H
62 11 4 0.0 31.8140507 1.05455005 -8.67258167 # C2H
63 11 4 0.0 33.2508507 0.516801000 -8.79267120 # C3H
64 11 4 0.0 33.7608185 -0.217093006 -7.54271793 # C4H
65 11 4 0.0 35.1488647 -0.860840976 -7.70077276 # C5H
66 11 3 0.0 36.3027649 0.117547996 -7.97090721 # C6H
67 12 3 0.0 -5.62570190 -6.13982677 -42.0490608 # C1H
68 12 4 0.0 -5.47179890 -4.96925592 -41.0686111 # C2H
69 12 4 0.0 -4.01690388 -4.55461597 -40.7869339 # C3H
70 12 4 0.0 -3.21649194 -5.57013512 -39.9568062 # C4H
71 12 4 0.0 -1.73006594 -5.21826506 -39.7757263 # C5H
72 12 3 0.0 -1.44921005 -3.91372705 -39.0134964 # C6H
73 13 3 0.0 -6.47092819 0.452450991 0.308934003 # C1H
74 13 4 0.0 -6.42228222 0.639698029 1.83135903 # C2H
75 13 4 0.0 -5.00449800 0.683016002 2.42801690 # C3H
76 13 4 0.0 -4.26423693 -0.663281977 2.40464902 # C4H
77 13 4 0.0 -2.80521607 -0.599381030 2.88759804 # C5H
78 13 3 0.0 -2.61305499 -0.172073007 4.35121584 # C6H
79 14 3 0.0 -3.82010603 -23.8455734 40.1943817 # C1H
80 14 4 0.0 -4.02314377 -22.7484512 39.1406708 # C2H
81 14 4 0.0 -4.40197802 -21.3710155 39.7126350 # C3H
82 14 4 0.0 -5.81886196 -21.2961292 40.3024521 # C4H
83 14 4 0.0 -6.15836716 -19.9592628 40.9833260 # C5H
84 14 3 0.0 -6.14670706 -18.7286491 40.0629196 # C6H
85 15 3 0.0 36.1910553 -22.1448174 -37.8589516 # C1H
86 15 4 0.0 36.9836159 -23.2508469 -38.5687065 # C2H
87 15 4 0.0 37.1110611 -24.5614662 -37.7724495 # C3H
88 15 4 0.0 38.0247612 -24.4697819 -36.5404587 # C4H
89 15 4 0.0 38.0597572 -25.7403679 -35.6741753 # C5H
90 15 3 0.0 38.6097069 -26.9966068 -36.3678017 # C6H
91 16 3 0.0 20.0835457 -38.1263313 3.42160392 # C1H
92 16 4 0.0 20.9142761 -38.2915039 2.14183497 # C2H
93 16 4 0.0 20.7162399 -37.1769867 1.09942102 # C3H
94 16 4 0.0 19.3443985 -37.1911507 0.407393008 # C4H
95 16 4 0.0 19.0964699 -36.0093002 -0.545406997 # C5H
96 16 3 0.0 20.0447350 -35.9245148 -1.75176501 # C6H
97 17 3 0.0 42.8403397 25.1253433 10.0997677 # C1H
98 17 4 0.0 43.3480721 23.7005482 10.3593254 # C2H
99 17 4 0.0 42.3367310 22.5884991 10.0298986 # C3H
100 17 4 0.0 41.1398392 22.5136147 10.9905739 # C4H
101 17 4 0.0 40.0664139 21.4849606 10.5959959 # C5H
102 17 3 0.0 40.5320778 20.0205708 10.5756483 # C6H
103 18 3 0.0 -37.2144508 16.7762966 -15.8188543 # C1H
104 18 4 0.0 -36.5296364 15.4113894 -15.9713821 # C2H
105 18 4 0.0 -36.2588043 14.6772146 -14.6463823 # C3H
106 18 4 0.0 -35.1620140 15.3150187 -13.7796030 # C4H
107 18 4 0.0 -34.9718552 14.6570606 -12.4022884 # C5H
108 18 3 0.0 -34.5218773 13.1878891 -12.4296579 # C6H
109 19 3 0.0 -4.13383818 26.2070847 -25.0957985 # C1H
110 19 4 0.0 -5.63638687 26.4821911 -24.9479237 # C2H
111 19 4 0.0 -6.48474407 25.2454834 -24.6032028 # C3H
112 19 4 0.0 -6.61623716 24.2268944 -25.7461109 # C4H
113 19 4 0.0 -7.36023617 22.9345913 -25.3686390 # C5H
114 19 3 0.0 -8.82849598 23.1162930 -24.9528370 # C6H
115 20 3 0.0 -16.4274807 -9.16082001 38.2710457 # C1H
116 20 4 0.0 -16.1371803 -7.69559479 37.9188461 # C2H
117 20 4 0.0 -16.6503239 -6.67381716 38.9487228 # C3H
118 20 4 0.0 -18.1796093 -6.53156519 38.9945297 # C4H
119 20 4 0.0 -18.7026234 -5.60293198 40.1036568 # C5H
120 20 3 0.0 -18.2637081 -4.13413382 39.9955597 # C6H
121 21 3 0.0 14.3615894 13.3637915 -1.70575297 # C1H
122 21 4 0.0 14.2496405 11.9389915 -1.14662802 # C2H
123 21 4 0.0 12.8707352 11.2821302 -1.33409202 # C3H
124 21 4 0.0 11.7560015 11.8868170 -0.466468990 # C4H
125 21 4 0.0 10.3535824 11.3162184 -0.737954974 # C5H
126 21 3 0.0 10.1843729 9.81643581 -0.448612988 # C6H
127 22 3 0.0 -24.7204971 -41.1525002 -15.0467863 # C1H
128 22 4 0.0 -25.6073532 -40.1593094 -14.2837248 # C2H
129 22 4 0.0 -26.7243938 -39.5177841 -15.1255445 # C3H
130 22 4 0.0 -26.2290001 -38.5175133 -16.1815243 # C4H
131 22 4 0.0 -27.3282928 -37.9656868 -17.1051617 # C5H
132 22 3 0.0 -28.4286594 -37.1509895 -16.4071903 # C6H
133 23 3 0.0 25.9326077 13.6731672 -20.3470116 # C1H
134 23 4 0.0 25.9206085 12.3623199 -19.5490494 # C2H
135 23 4 0.0 24.6050587 12.0763063 -18.8037243 # C3H
136 23 4 0.0 24.3404408 13.0004339 -17.6049671 # C4H
137 23 4 0.0 22.9722328 12.7986641 -16.9316444 # C5H
138 23 3 0.0 22.7433872 11.4143476 -16.3047504 # C6H
139 24 3 0.0 -22.1952171 -24.8783932 27.0138187 # C1H
140 24 4 0.0 -23.3732929 -25.8269482 27.2737865 # C2H
141 24 4 0.0 -24.7509499 -25.1427670 27.3178310 # C3H
142 24 4 0.0 -24.9800186 -24.2550201 28.5509109 # C4H
143 24 4 0.0 -26.3054428 -23.4745140 28.5397511 # C5H
144 24 3 0.0 -27.5781384 -24.3358593 28.5445232 # C6H
145 25 3 0.0 23.1262283 4.18661022 19.7983074 # C1H
146 25 4 0.0 24.1937637 5.21801901 19.4087334 # C2H
147 25 4 0.0 23.9240761 6.64490700 19.9178963 # C3H
148 25 4 0.0 22.7500057 7.35478306 19.2260246 # C4H
149 25 4 0.0 22.3997421 8.73252010 19.8135815 # C5H
150 25 3 0.0 23.5041428 9.79569721 19.7056389 # C6H
151 26 3 0.0 -25.4348755 14.5619640 -33.9556618 # C1H
152 26 4 0.0 -24.3147297 15.5694485 -33.6633339 # C2H
153 26 4 0.0 -24.5637684 16.9844074 -34.2145691 # C3H
154 26 4 0.0 -24.4860592 17.0923901 -35.7453690 # C4H
155 26 4 0.0 -24.8531322 18.4759865 -36.3083839 # C5H
156 26 3 0.0 -23.9344368 19.6292515 -35.8751717 # C6H
157 27 3 0.0 -1.51470196 -40.4813423 1.48074996 # C1H
158 27 4 0.0 -1.33369195 -40.7236481 2.98532009 # C2H
159 27 4 0.0 6.97949976E-02 -40.3954468 3.52429605 # C3H
160 27 4 0.0 1.16864502 -41.3678589 3.06823397 # C4H
161 27 4 0.0 2.59077001 -40.9758568 3.50407910 # C5H
162 27 3 0.0 2.82866192 -40.9383888 5.02187395 # C6H
163 28 3 0.0 -13.0349550 -23.7889175 -10.5835066 # C1H
164 28 4 0.0 -11.6951399 -24.5244236 -10.4451828 # C2H
165 28 4 0.0 -10.4602890 -23.6071148 -10.4042492 # C3H
166 28 4 0.0 -10.1338606 -22.9215660 -11.7401066 # C4H
167 28 4 0.0 -8.97553444 -21.9116001 -11.6744204 # C5H
168 28 3 0.0 -7.60822010 -22.5000935 -11.2925491 # C6H
169 29 3 0.0 37.3050766 -28.8966923 -16.4657822 # C1H
170 29 4 0.0 35.9006805 -29.4156914 -16.8027020 # C2H
171 29 4 0.0 35.7613029 -30.0242271 -18.2092037 # C3H
172 29 4 0.0 35.8373108 -29.0019512 -19.3538532 # C4H
173 29 4 0.0 35.8203812 -29.6176147 -20.7633705 # C5H
174 29 3 0.0 34.5437622 -30.3905067 -21.1302147 # C6H
175 30 3 0.0 -42.9681282 -13.9347582 31.1864967 # C1H
176 30 4 0.0 -42.1426506 -14.2890444 32.4307899 # C2H
177 30 4 0.0 -40.7429619 -14.8549280 32.1330719 # C3H
178 30 4 0.0 -40.7444305 -16.2679768 31.5294666 # C4H
179 30 4 0.0 -39.3569145 -16.7891865 31.1181259 # C5H
180 30 3 0.0 -38.3460159 -16.9492683 32.2644958 # C6H
181 31 3 0.0 -3.02691293 -36.0324974 -43.7453537 # C1H
182 31 4 0.0 -2.23540497 -34.7809944 -43.3422852 # C2H
183 31 4 0.0 -0.706155002 -34.9470177 -43.3849335 # C3H
184 31 4 0.0 -0.135844007 -35.8615189 -42.2897263 # C4H
185 31 4 0.0 1.37509203 -36.1274223 -42.4012413 # C5H
186 31 3 0.0 2.27469611 -34.8892212 -42.2624092 # C6H
187 32 3 0.0 -32.3214111 6.25728607 -26.9613247 # C1H
188 32 4 0.0 -31.7415199 5.60368919 -28.2229671 # C2H
189 32 4 0.0 -30.2841377 5.12849283 -28.0880127 # C3H
190 32 4 0.0 -29.2515907 6.26315498 -28.0017700 # C4H
191 32 4 0.0 -27.8084888 5.79654121 -27.7452583 # C5H
192 32 3 0.0 -27.1966534 4.91137981 -28.8424568 # C6H
193 33 3 0.0 -27.6435089 35.1266785 -34.0573921 # C1H
194 33 4 0.0 -27.6719513 36.5173683 -34.7057571 # C2H
195 33 4 0.0 -26.3131828 37.0055733 -35.2381058 # C3H
196 33 4 0.0 -25.2913113 37.3550987 -34.1450996 # C4H
197 33 4 0.0 -23.8943863 37.7268791 -34.6708794 # C5H
198 33 3 0.0 -23.8351116 38.9823036 -35.5552368 # C6H
199 34 3 0.0 -12.4110889 34.3109856 22.4098167 # C1H
200 34 4 0.0 -13.8933887 34.4816475 22.0508385 # C2H
201 34 4 0.0 -14.3941908 33.5518761 20.9315948 # C3H
202 34 4 0.0 -13.8476353 33.8873138 19.5352383 # C4H
203 34 4 0.0 -14.2480383 32.8896408 18.4350586 # C5H
204 34 3 0.0 -15.7555561 32.7867355 18.1548824 # C6H
205 35 3 0.0 25.5373363 -14.3599634 -27.0818691 # C1H
206 35 4 0.0 26.5370522 -13.4656763 -26.3362007 # C2H
207 35 4 0.0 26.9667816 -12.2035151 -27.1044922 # C3H
208 35 4 0.0 27.8655796 -12.4755764 -28.3207150 # C4H
209 35 4 0.0 28.1979256 -11.2311211 -29.1615124 # C5H
210 35 3 0.0 28.9943142 -10.1367674 -28.4336033 # C6H
211 36 3 0.0 -39.8489151 19.6508999 7.94482422 # C1H
212 36 4 0.0 -38.6748848 20.3537159 7.24990416 # C2H
213 36 4 0.0 -37.3597412 20.3489552 8.04887676 # C3H
214 36 4 0.0 -37.3717003 21.2450294 9.29705906 # C4H
215 36 4 0.0 -36.1048546 21.1505413 10.1643724 # C5H
216 36 3 0.0 -34.8029900 21.5980091 9.48127460 # C6H
217 37 3 0.0 -1.99782097 12.8614578 -12.5183010 # C1H
218 37 4 0.0 -3.38914394 12.2354298 -12.3524208 # C2H
219 37 4 0.0 -4.39565897 12.6058455 -13.4559193 # C3H
220 37 4 0.0 -4.86817122 14.0675173 -13.4198980 # C4H
221 37 4 0.0 -5.77888680 14.4743099 -14.5908728 # C5H
222 37 3 0.0 -7.11734295 13.7240896 -14.6769171 # C6H
223 38 3 0.0 -24.3709602 -7.32563496 -3.14497304 # C1H
224 38 4 0.0 -25.3279533 -6.14751005 -3.37166905 # C2H
225 38 4 0.0 -24.7988243 -4.78736591 -2.88380003 # C3H
226 38 4 0.0 -24.7240047 -4.64613104 -1.35556400 # C4H
227 38 4 0.0 -24.0831795 -3.33668303 -0.864895999 # C5H
228 38 3 0.0 -24.8302002 -2.05094504 -1.25288296 # C6H
229 39 3 0.0 -21.8904915 43.2326584 -16.5307579 # C1H
230 39 4 0.0 -21.3036613 42.9783936 -15.1357012 # C2H
231 39 4 0.0 -20.4114609 41.7288780 -15.0323582 # C3H
232 39 4 0.0 -21.1698914 40.3965950 -15.1365376 # C4H
233 39 4 0.0 -20.2708263 39.1486435 -15.1556883 # C5H
234 39 3 0.0 -19.4302769 38.9218178 -13.8893061 # C6H
235 40 3 0.0 30.2050991 -16.2199192 13.8666439 # C1H
236 40 4 0.0 30.5890884 -14.7507677 13.6444874 # C2H
237 40 4 0.0 32.0241241 -14.5323248 13.1336670 # C3H
238 40 4 0.0 33.1193314 -14.8333826 14.1685286 # C4H
239 40 4 0.0 34.5556412 -14.7337446 13.6270905 # C5H
240 40 3 0.0 34.9789848 -13.3416615 13.1325436 # C6H
241 41 3 0.0 -40.1735764 -26.2018147 17.4002457 # C1H
242 41 4 0.0 -39.1719284 -26.0408058 16.2487354 # C2H
243 41 4 0.0 -38.7818947 -27.3544254 15.5485468 # C3H
244 41 4 0.0 -37.9074669 -28.2908726 16.3967781 # C4H
245 41 4 0.0 -37.6161804 -29.6552067 15.7488499 # C5H
246 41 3 0.0 -36.8215866 -29.6049232 14.4343958 # C6H
247 42 3 0.0 3.82875800 36.9334259 -37.6462593 # C1H
248 42 4 0.0 2.92781901 38.1053009 -37.2336807 # C2H
249 42 4 0.0 3.05370498 39.3556671 -38.1217766 # C3H
250 42 4 0.0 4.38366699 40.1103554 -37.9711227 # C4H
251 42 4 0.0 4.56377316 41.2891121 -38.9428024 # C5H
252 42 3 0.0 3.54701495 42.4312553 -38.7898102 # C6H
253 43 3 0.0 -1.95192397 17.4965038 -39.4941216 # C1H
254 43 4 0.0 -3.37373900 17.3137569 -38.9461708 # C2H
255 43 4 0.0 -3.47763896 17.3328724 -37.4109726 # C3H
256 43 4 0.0 -2.87530994 16.1006222 -36.7182884 # C4H
257 43 4 0.0 -2.86758304 16.1706429 -35.1817017 # C5H
258 43 3 0.0 -4.25155783 16.2464352 -34.5179482 # C6H
259 44 3 0.0 -29.5971661 10.7451649 3.44814205 # C1H
260 44 4 0.0 -29.1503143 12.1120291 3.98406410 # C2H
261 44 4 0.0 -29.9785767 12.6391611 5.16901302 # C3H
262 44 4 0.0 -31.4089603 13.0657129 4.80417681 # C4H
263 44 4 0.0 -32.2789116 13.4783792 6.00374317 # C5H
264 44 3 0.0 -31.7853603 14.7062769 6.78500605 # C6H
265 45 3 0.0 -39.6700172 -19.0402584 -7.89543915 # C1H
266 45 4 0.0 -41.1003647 -18.7352753 -8.36051178 # C2H
267 45 4 0.0 -41.2031174 -18.1515903 -9.78063202 # C3H
268 45 4 0.0 -40.6766624 -16.7143974 -9.91618061 # C4H
269 45 4 0.0 -40.6649094 -16.1706142 -11.3550091 # C5H
270 45 3 0.0 -42.0418358 -16.0547714 -12.0275812 # C6H
271 46 3 0.0 -5.70891190 16.8452415 2.22935891 # C1H
272 46 4 0.0 -5.13655281 16.0148220 1.07263398 # C2H
273 46 4 0.0 -5.61837292 14.5539618 1.03105700 # C3H
274 46 4 0.0 -5.06291199 13.6697111 2.15827107 # C4H
275 46 4 0.0 -5.63524914 12.2423611 2.19244099 # C5H
276 46 3 0.0 -5.33540821 11.3817348 0.955058992 # C6H
277 47 3 0.0 4.49559212 -7.00267792 11.0183172 # C1H
278 47 4 0.0 4.87640285 -7.76445913 12.2949829 # C2H
279 47 4 0.0 4.42026520 -9.23379707 12.3261871 # C3H
280 47 4 0.0 2.90220189 -9.42462826 12.4680176 # C4H
281 47 4 0.0 2.43009210 -10.8858080 12.3778448 # C5H
282 47 3 0.0 2.95803189 -11.8186646 13.4790955 # C6H
283 48 3 0.0 2.37834191 9.72425461 -2.90566397 # C1H
284 48 4 0.0 3.80777788 10.0119925 -3.38433504 # C2H
285 48 4 0.0 4.45094681 11.2668076 -2.76809096 # C3H
286 48 4 0.0 3.84570599 12.5935965 -3.25220704 # C4H
287 48 4 0.0 4.40156078 13.8441210 -2.54987097 # C5H
288 48 3 0.0 5.90272999 14.1024714 -2.75345111 # C6H
289 49 3 0.0 14.7169933 -7.26635981 -20.4786339 # C1H
290 49 4 0.0 13.5367298 -8.22398376 -20.2661743 # C2H
291 49 4 0.0 12.1517830 -7.55423212 -20.3028088 # C3H
292 49 4 0.0 11.8504181 -6.65224409 -19.0958920 # C4H
293 49 4 0.0 10.5195065 -5.88637304 -19.1863327 # C5H
294 49 3 0.0 9.25703907 -6.76131392 -19.2348137 # C6H
295 50 3 0.0 31.0121937 20.3521385 -40.3635406 # C1H
296 50 4 0.0 31.6466236 21.7254715 -40.1053581 # C2H
297 50 4 0.0 32.7523079 22.1193314 -41.1005096 # C3H
298 50 4 0.0 34.0508080 21.3098488 -40.9601860 # C4H
299 50 4 0.0 35.1137352 21.6155567 -42.0292015 # C5H
300 50 3 0.0 35.6516113 23.0551338 -42.0317345 # C6H
301 51 3 0.0 21.0057011 14.2877922 10.3143339 # C1H
302 51 4 0.0 19.6460190 14.4505816 9.62153721 # C2H
303 51 4 0.0 18.6344929 15.3202324 10.3886824 # C3H
304 51 4 0.0 18.0883522 14.6762762 11.6724663 # C4H
305 51 4 0.0 17.1714153 15.5882158 12.5053272 # C5H
306 51 3 0.0 15.8736248 16.0300236 11.8108902 # C6H
307 52 3 0.0 38.1457253 -30.8026276 20.7061310 # C1H
308 52 4 0.0 36.6550217 -30.8943939 21.0590858 # C2H
309 52 4 0.0 35.8370285 -29.6348553 20.7237644 # C3H
310 52 4 0.0 36.1427307 -28.4225998 21.6170902 # C4H
311 52 4 0.0 35.4176979 -27.1286869 21.2094383 # C5H
312 52 3 0.0 33.8835602 -27.1811905 21.2826519 # C6H
313 53 3 0.0 32.3596687 -3.71405602 -42.4015541 # C1H
314 53 4 0.0 33.6720963 -2.91862106 -42.4064636 # C2H
315 53 4 0.0 34.7287064 -3.41691303 -41.4048309 # C3H
316 53 4 0.0 34.3819084 -3.15199995 -39.9315338 # C4H
317 53 4 0.0 35.3743210 -3.75459290 -38.9225426 # C5H
318 53 3 0.0 36.8082314 -3.20731211 -39.0005608 # C6H
319 54 3 0.0 -42.3610802 24.0090485 36.9942589 # C1H
320 54 4 0.0 -40.8904877 24.3271122 37.2965698 # C2H
321 54 4 0.0 -40.0951958 24.8833332 36.1023712 # C3H
322 54 4 0.0 -39.8163872 23.8582020 34.9922256 # C4H
323 54 4 0.0 -39.1288681 24.4379406 33.7443123 # C5H
324 54 3 0.0 -37.7272911 25.0241699 33.9758530 # C6H
325 55 3 0.0 -14.9644604 33.5340004 -3.39359403 # C1H
326 55 4 0.0 -14.5161619 33.0434036 -4.77690506 # C2H
327 55 4 0.0 -14.0622120 31.5737171 -4.82094622 # C3H
328 55 4 0.0 -12.7281895 31.2994938 -4.10944510 # C4H
329 55 4 0.0 -12.3307409 29.8148975 -4.04560089 # C5H
330 55 3 0.0 -12.0959759 29.1359577 -5.40413809 # C6H
331 56 3 0.0 -31.7949066 8.69715214 11.9023876 # C1H
332 56 4 0.0 -30.2962151 8.61183167 12.2215261 # C2H
333 56 4 0.0 -29.5066986 7.62906790 11.3390160 # C3H
334 56 4 0.0 -29.8156109 6.14757109 11.6050787 # C4H
335 56 4 0.0 -29.1210251 5.16695213 10.6448689 # C5H
336 56 3 0.0 -27.5850716 5.17109203 10.6951351 # C6H
337 57 3 0.0 21.5066433 1.83883297 36.9830513 # C1H
338 57 4 0.0 22.1389923 2.53861308 38.1936913 # C2H
339 57 4 0.0 23.6002636 2.14471197 38.4721031 # C3H
340 57 4 0.0 23.7828846 0.712135971 38.9969139 # C4H
341 57 4 0.0 25.2479134 0.273115993 39.1612930 # C5H
342 57 3 0.0 26.0669594 1.07785594 40.1826897 # C6H
343 58 3 0.0 -26.2791519 19.2694359 9.31514835 # C1H
344 58 4 0.0 -25.9778481 19.9659653 10.6490402 # C2H
345 58 4 0.0 -25.1256275 19.1385689 11.6273642 # C3H
346 58 4 0.0 -25.8514175 17.9280491 12.2347527 # C4H
347 58 4 0.0 -24.9684353 17.0298405 13.1177177 # C5H
348 58 3 0.0 -24.3930492 17.7014523 14.3745260 # C6H
349 59 3 0.0 -32.6361084 0.767777979 23.4942284 # C1H
350 59 4 0.0 -33.8281403 -0.114680998 23.8885975 # C2H
351 59 4 0.0 -34.5904465 0.357257009 25.1392593 # C3H
352 59 4 0.0 -33.8173866 0.186718002 26.4562054 # C4H
353 59 4 0.0 -34.5245132 0.767323971 27.6927071 # C5H
354 59 3 0.0 -35.8730545 0.120412000 28.0457497 # C6H
355 60 3 0.0 15.3271275 31.7575245 -31.7804070 # C1H
356 60 4 0.0 16.7772255 31.7306538 -32.2821007 # C2H
357 60 4 0.0 17.8379936 31.9688225 -31.1930485 # C3H
358 60 4 0.0 17.8790054 33.4055939 -30.6498528 # C4H
359 60 4 0.0 18.8525543 33.6188278 -29.4781876 # C5H
360 60 3 0.0 20.3351097 33.3727455 -29.7993889 # C6H
361 61 3 0.0 -28.5474243 -37.8727989 -10.1523952 # C1H
362 61 4 0.0 -28.5245762 -39.2059402 -9.39251995 # C2H
363 61 4 0.0 -29.9113503 -39.8184776 -9.12861538 # C3H
364 61 4 0.0 -30.7564716 -39.0558968 -8.09648800 # C4H
365 61 4 0.0 -32.1869087 -39.5928879 -7.91884422 # C5H
366 61 3 0.0 -32.2901535 -41.0328903 -7.39213324 # C6H
367 62 3 0.0 12.4700727 -30.7713585 5.91391087 # C1H
368 62 4 0.0 11.9691057 -29.4064808 5.42263985 # C2H
369 62 4 0.0 12.5950661 -28.9308701 4.09978104 # C3H
370 62 4 0.0 14.0758390 -28.5341015 4.20436096 # C4H
371 62 4 0.0 14.7378273 -28.1743565 2.86330795 # C5H
372 62 3 0.0 14.1459808 -26.9530907 2.14225197 # C6H
373 63 3 0.0 26.0416660 -7.64180517 8.67798233 # C1H
374 63 4 0.0 26.6357632 -6.57054090 9.60245323 # C2H
375 63 4 0.0 25.8571129 -5.24356413 9.63111782 # C3H
376 63 4 0.0 25.9590549 -4.41935682 8.33831501 # C4H
377 63 4 0.0 25.0862656 -3.15292907 8.31672096 # C5H
378 63 3 0.0 25.4302387 -2.09667397 9.37865639 # C6H
379 64 3 0.0 -36.2075844 29.8823090 -38.9075775 # C1H
380 64 4 0.0 -37.1924210 29.9065151 -37.7308350 # C2H
381 64 4 0.0 -38.6686707 29.7243519 -38.1251488 # C3H
382 64 4 0.0 -39.2782249 30.9198017 -38.8737411 # C4H
383 64 4 0.0 -40.7146378 30.6949577 -39.3759689 # C5H
384 64 3 0.0 -41.7658844 30.4535732 -38.2812958 # C6H
385 65 3 0.0 -22.3831005 12.1563730 -21.2469864 # C1H
386 65 4 0.0 -23.6819572 11.5314350 -20.7200813 # C2H
387 65 4 0.0 -24.9696617 12.2108316 -21.2183018 # C3H
388 65 4 0.0 -25.2142467 13.6120014 -20.6369648 # C4H
389 65 4 0.0 -26.4338818 14.3435860 -21.2229156 # C5H
390 65 3 0.0 -27.7914257 13.6687336 -20.9712334 # C6H
391 66 3 0.0 -11.1069775 -20.0053673 -27.0760155 # C1H
392 66 4 0.0 -10.4864759 -18.9934635 -28.0487633 # C2H
393 66 4 0.0 -10.4355984 -19.4597073 -29.5143757 # C3H
394 66 4 0.0 -9.42890835 -20.5880470 -29.7872772 # C4H
395 66 4 0.0 -9.46047115 -21.1399956 -31.2226944 # C5H
396 66 3 0.0 -9.09484482 -20.1331768 -32.3246574 # C6H
397 67 3 0.0 -2.05121493 14.2225628 -19.0298023 # C1H
398 67 4 0.0 -0.953836024 15.1514902 -18.4930935 # C2H
399 67 4 0.0 -0.366086990 14.7327442 -17.1339779 # C3H
400 67 4 0.0 -1.32493699 14.9082918 -15.9461899 # C4H
401 67 4 0.0 -0.786643982 14.3788719 -14.6060333 # C5H
402 67 3 0.0 0.478193998 15.0765114 -14.0814571 # C6H
403 68 3 0.0 -11.3854465 1.27231705 -41.5394402 # C1H
404 68 4 0.0 -10.9666548 2.44832206 -40.6467896 # C2H
405 68 4 0.0 -9.67311573 3.15775800 -41.0843315 # C3H
406 68 4 0.0 -8.39436054 2.33131194 -40.8773994 # C4H
407 68 4 0.0 -7.11425400 2.98604798 -41.4239464 # C5H
408 68 3 0.0 -6.72380686 4.31979799 -40.7679329 # C6H
409 69 3 0.0 -32.1382027 -5.92546177 -42.7284279 # C1H
410 69 4 0.0 -31.8861485 -7.27209282 -42.0368614 # C2H
411 69 4 0.0 -30.4203091 -7.73994780 -42.0571785 # C3H
412 69 4 0.0 -29.9095631 -8.16843700 -43.4415894 # C4H
413 69 4 0.0 -28.4130840 -8.52091885 -43.4902649 # C5H
414 69 3 0.0 -27.9891205 -9.71858978 -42.6256638 # C6H
415 70 3 0.0 12.8100100 -11.6875086 37.3796997 # C1H
416 70 4 0.0 13.3518410 -12.8008213 36.4729691 # C2H
417 70 4 0.0 14.8561220 -13.0833778 36.6319962 # C3H
418 70 4 0.0 15.7713270 -11.9729786 36.0930443 # C4H
419 70 4 0.0 17.2701836 -12.1945333 36.3583870 # C5H
420 70 3 0.0 17.8802776 -13.4397345 35.6958504 # C6H
421 71 3 0.0 24.3302155 -6.30789804 -32.3508873 # C1H
422 71 4 0.0 23.4597225 -5.16765404 -31.8056412 # C2H
423 71 4 0.0 22.7685299 -5.47218990 -30.4649353 # C3H
424 71 4 0.0 21.6404133 -6.51167011 -30.5537224 # C4H
425 71 4 0.0 21.0285969 -6.90877724 -29.1994495 # C5H
426 71 3 0.0 20.3356895 -5.77299213 -28.4303150 # C6H
427 72 3 0.0 38.1724319 -22.0999718 -23.0905418 # C1H
428 72 4 0.0 39.1156273 -23.1054592 -23.7647705 # C2H
429 72 4 0.0 40.5631561 -23.0773067 -23.2433681 # C3H
430 72 4 0.0 41.3553047 -21.8206005 -23.6361065 # C4H
431 72 4 0.0 42.7606583 -21.7310390 -23.0172157 # C5H
432 72 3 0.0 43.7350197 -22.8457584 -23.4291821 # C6H
433 73 3 0.0 -0.962575018 4.85662985 -33.6046906 # C1H
434 73 4 0.0 -1.15157700 3.37999105 -33.9775467 # C2H
435 73 4 0.0 -2.45236897 3.07155895 -34.7396469 # C3H
436 73 4 0.0 -3.72853494 3.19135189 -33.8922386 # C4H
437 73 4 0.0 -5.03772306 3.00311303 -34.6775131 # C5H
438 73 3 0.0 -5.22825003 1.62029600 -35.3203316 # C6H
439 74 3 0.0 -17.5083523 -22.2845554 2.78401399 # C1H
440 74 4 0.0 -18.6151772 -21.6197147 3.61355090 # C2H
441 74 4 0.0 -18.6588173 -20.0847912 3.51309204 # C3H
442 74 4 0.0 -17.4859200 -19.3696938 4.20156622 # C4H
443 74 4 0.0 -17.4597855 -17.8448887 4.00069380 # C5H
444 74 3 0.0 -18.6623650 -17.0827274 4.57914591 # C6H
445 75 3 0.0 -37.4282265 -8.88737869 -26.4102917 # C1H
446 75 4 0.0 -36.1580391 -8.06254101 -26.6582088 # C2H
447 75 4 0.0 -36.3435974 -6.54105186 -26.5217209 # C3H
448 75 4 0.0 -37.1768227 -5.89983988 -27.6422691 # C4H
449 75 4 0.0 -37.4670868 -4.40203094 -27.4463615 # C5H
450 75 3 0.0 -36.2317848 -3.48810101 -27.4249668 # C6H
451 76 3 0.0 -27.0768337 -17.0100231 -26.8796291 # C1H
452 76 4 0.0 -27.8181248 -18.3477917 -26.7528629 # C2H
453 76 4 0.0 -28.7030544 -18.7083626 -27.9590454 # C3H
454 76 4 0.0 -29.9603691 -17.8375702 -28.1071281 # C4H
455 76 4 0.0 -30.7834702 -18.1134109 -29.3769646 # C5H
456 76 3 0.0 -31.3779926 -19.5265179 -29.4835777 # C6H
457 77 3 0.0 -31.9189034 -15.2218657 -2.23840094 # C1H
458 77 4 0.0 -30.5157928 -14.6193209 -2.08535600 # C2H
459 77 4 0.0 -29.3742466 -15.6506872 -2.05154610 # C3H
460 77 4 0.0 -29.3266182 -16.5036507 -0.774348021 # C4H
461 77 4 0.0 -28.2643528 -17.6160736 -0.787428021 # C5H
462 77 3 0.0 -26.8078575 -17.1360703 -0.887004018 # C6H
463 78 3 0.0 5.82178402 33.1836891 40.3670311 # C1H
464 78 4 0.0 5.02865219 32.8156776 39.1057930 # C2H
465 78 4 0.0 4.41613388 34.0142136 38.3599243 # C3H
466 78 4 0.0 3.24932289 34.6911659 39.0956802 # C4H
467 78 4 0.0 2.71364498 35.9613380 38.4132004 # C5H
468 78 3 0.0 2.11204600 35.7546768 37.0142517 # C6H
469 79 3 0.0 1.01468897 1.50740695 -22.1067295 # C1H
470 79 4 0.0 2.51128101 1.57544005 -22.4395809 # C2H
471 79 4 0.0 3.22581792 2.83912492 -21.9291630 # C3H
472 79 4 0.0 2.83535099 4.13040018 -22.6648216 # C4H
473 79 4 0.0 3.45386600 5.41163778 -22.0800705 # C5H
474 79 3 0.0 4.98807096 5.48546886 -22.1296635 # C6H
475 80 3 0.0 12.8678913 -2.92496300 -4.72014284 # C1H
476 80 4 0.0 12.0394840 -3.23760390 -5.97361898 # C2H
477 80 4 0.0 10.6549978 -2.56700110 -6.01206303 # C3H
478 80 4 0.0 9.64573002 -3.13549900 -5.00249004 # C4H
479 80 4 0.0 8.30144501 -2.38950896 -4.95287323 # C5H
480 80 3 0.0 7.48174286 -2.42021990 -6.25242710 # C6H
481 81 3 0.0 20.5743675 -40.1568794 5.94122314 # C1H
482 81 4 0.0 21.8977947 -39.3836708 6.01799917 # C2H
483 81 4 0.0 22.9387341 -39.7856407 4.95835209 # C3H
484 81 4 0.0 23.5509224 -41.1795769 5.16625309 # C4H
485 81 4 0.0 24.5002460 -41.6349182 4.04486513 # C5H
486 81 3 0.0 25.7597237 -40.7746010 3.85705304 # C6H
487 82 3 0.0 -35.5494804 -25.2020359 -1.39728999 # C1H
488 82 4 0.0 -34.6971512 -24.1106567 -0.735750020 # C2H
489 82 4 0.0 -33.1948967 -24.1836872 -1.06114399 # C3H
490 82 4 0.0 -32.4634972 -25.3736458 -0.420745999 # C4H
491 82 4 0.0 -30.9907875 -25.5199528 -0.840009987 # C5H
492 82 3 0.0 -30.0736408 -24.3515129 -0.445946991 # C6H
493 83 3 0.0 -8.37625599 -37.3245049 8.35298538 # C1H
494 83 4 0.0 -7.61712503 -38.3817787 7.53990793 # C2H
495 83 4 0.0 -6.32252789 -37.8762589 6.87926102 # C3H
496 83 4 0.0 -6.54377890 -36.9003525 5.71319485 # C4H
497 83 4 0.0 -5.25414610 -36.2989960 5.12900209 # C5H
498 83 3 0.0 -4.28150892 -37.3089142 4.49992609 # C6H
499 84 3 0.0 -4.41499519 28.5331688 19.9247246 # C1H
500 84 4 0.0 -5.72387123 27.8464775 19.5118065 # C2H
501 84 4 0.0 -5.63254499 26.3159332 19.3811016 # C3H
502 84 4 0.0 -4.80619907 25.8292542 18.1805401 # C4H
503 84 4 0.0 -4.61074018 24.3049564 18.1144199 # C5H
504 84 3 0.0 -5.89794493 23.4813995 17.9514675 # C6H
505 85 3 0.0 -6.77435780 -26.7903843 5.33721590 # C1H
506 85 4 0.0 -6.41980600 -28.2747593 5.49885893 # C2H
507 85 4 0.0 -7.44301987 -29.2493801 4.88965321 # C3H
508 85 4 0.0 -8.78110218 -29.3175335 5.64194298 # C4H
509 85 4 0.0 -9.84889126 -30.1970272 4.96934891 # C5H
510 85 3 0.0 -9.49359226 -31.6870136 4.84524298 # C6H
511 86 3 0.0 -36.9490738 18.2417679 1.75191903 # C1H
512 86 4 0.0 -35.4925156 18.0921726 1.29227400 # C2H
513 86 4 0.0 -34.6923904 17.0086823 2.03647304 # C3H
514 86 4 0.0 -34.3684921 17.3505211 3.49910307 # C4H
515 86 4 0.0 -33.6758156 16.2217045 4.28143215 # C5H
516 86 3 0.0 -32.2940903 15.8048840 3.75342011 # C6H
517 87 3 0.0 8.71685028 -9.25041580 -41.9319038 # C1H
518 87 4 0.0 8.30444336 -7.80586195 -42.2455711 # C2H
519 87 4 0.0 9.36226082 -6.98678303 -43.0059128 # C3H
520 87 4 0.0 10.6038179 -6.62622499 -42.1755028 # C4H
521 87 4 0.0 11.7157869 -5.91358280 -42.9640007 # C5H
522 87 3 0.0 11.3349228 -4.54545498 -43.5512543 # C6H
523 88 3 0.0 10.3205891 -25.1587505 41.4505882 # C1H
524 88 4 0.0 9.16842556 -24.7432823 42.3753128 # C2H
525 88 4 0.0 8.31045246 -23.5792885 41.8490105 # C3H
526 88 4 0.0 9.02028084 -22.2164993 41.8489990 # C4H
527 88 4 0.0 8.21103477 -21.0738716 41.2121429 # C5H
528 88 3 0.0 6.88994598 -20.7286091 41.9172745 # C6H
529 89 3 0.0 27.6192398 -5.94066715 43.3727684 # C1H
530 89 4 0.0 27.2599945 -7.20157814 42.5751114 # C2H
531 89 4 0.0 28.4615078 -7.92440414 41.9411736 # C3H
532 89 4 0.0 29.1114750 -7.16979122 40.7710648 # C4H
533 89 4 0.0 30.3846645 -7.82869816 40.2134857 # C5H
534 89 3 0.0 30.1914024 -9.22622299 39.6041679 # C6H
535 90 3 0.0 2.72128797 -10.1137009 -5.19691181 # C1H
536 90 4 0.0 2.95437288 -10.4837770 -3.72588611 # C2H
537 90 4 0.0 1.84634197 -11.3472338 -3.09763789 # C3H
538 90 4 0.0 0.517248988 -10.6097317 -2.87257695 # C4H
539 90 4 0.0 -0.628196001 -11.4983721 -2.35843492 # C5H
540 90 3 0.0 -0.398602992 -12.1386786 -0.980396986 # C6H