LAMMPS data file
# Generated by Playmol on 13-Mar-2025 at 19:03:58

3 atom types
2 bond types
2 angle types
2 dihedral types

7010 atoms
6000 bonds
5000 angles
4000 dihedrals

-25.0000000 25.0000000 xlo xhi
-25.0000000 25.0000000 ylo yhi
-25.0000000 25.0000000 zlo zhi

Masses

1 15.034 # CH3
2 14.027 # CH2
3 44.010 # co2

# Elements: O? N? Sc?

Pair Coeffs # lj/cut

1 0.1750 3.9050 # CH3
2 0.1180 3.9050 # CH2
3 0.4692 3.720 # co2

Bond Coeffs # harmonic

1 260.0 1.526 # CH3 CH2
2 260.0 1.526 # CH2 CH2

Angle Coeffs # harmonic

1 63.0 112.4 # CH2 CH2 CH2
2 63.0 112.4 # CH3 CH2 CH2

Dihedral Coeffs # opls

1 1.411 -0.271 3.145 0.00 # CH3 CH2 CH2 CH2
2 1.411 -0.271 3.145 0.00 # CH2 CH2 CH2 CH2

Atoms

1 1 3 0.0 7.54118299 4.57940817 9.89295101 # CO2
2 2 3 0.0 -3.55487800 18.4247856 -6.59537792 # CO2
3 3 3 0.0 2.40503311 -6.55026913 10.2300787 # CO2
4 4 3 0.0 0.363204986 1.97745001 4.56344318 # CO2
5 5 3 0.0 -13.4452038 -1.08511996 9.43115139 # CO2
6 6 3 0.0 6.71663904 17.8920631 16.0665073 # CO2
7 7 3 0.0 20.0384655 23.7503185 4.82091713 # CO2
8 8 3 0.0 6.17051888 -19.3249016 -6.67507601 # CO2
9 9 3 0.0 -8.52697563 13.0820103 -16.8576450 # CO2
10 10 3 0.0 23.3407745 -8.32579708 -21.1754341 # CO2
11 11 1 0.0 -18.3604431 18.8193398 -23.4576073 # C1
12 11 2 0.0 -19.0556927 19.8969574 -22.6175995 # C2
13 11 2 0.0 -18.6363621 21.3504963 -22.9063873 # C3
14 11 2 0.0 -17.1699314 21.7106705 -22.5738087 # C4
15 11 2 0.0 -16.1846371 21.5933266 -23.7505512 # C5
16 11 2 0.0 -14.7440805 22.0112877 -23.4122276 # C6
17 11 1 0.0 -14.0157089 21.0602283 -22.4533157 # C7
18 12 1 0.0 -20.3445148 5.51273203 -8.68913937 # C1
19 12 2 0.0 -19.6333256 4.28541183 -8.10763741 # C2
20 12 2 0.0 -18.4203701 4.57539320 -7.20394516 # C3
21 12 2 0.0 -17.2060032 5.23923492 -7.89342403 # C4
22 12 2 0.0 -17.1610355 6.77511978 -7.80212498 # C5
23 12 2 0.0 -15.9162397 7.40982485 -8.44398975 # C6
24 12 1 0.0 -15.8673296 7.30458403 -9.97404957 # C7
25 13 1 0.0 -13.2777071 13.0004721 -11.0126238 # C1
26 13 2 0.0 -14.5798759 12.2801600 -11.3810711 # C2
27 13 2 0.0 -15.5584860 13.0706959 -12.2695446 # C3
28 13 2 0.0 -16.1703606 14.3422432 -11.6374598 # C4
29 13 2 0.0 -15.4241524 15.6518173 -11.9496908 # C5
30 13 2 0.0 -16.0821419 16.9099045 -11.3592501 # C6
31 13 1 0.0 -16.0104389 17.0053654 -9.82944584 # C7
32 14 1 0.0 -4.77433205 -20.3037281 12.8674688 # C1
33 14 2 0.0 -4.74722910 -21.4403858 13.8958282 # C2
34 14 2 0.0 -3.65631390 -22.5080318 13.6907682 # C3
35 14 2 0.0 -3.77785897 -23.3621235 12.4076052 # C4
36 14 2 0.0 -2.96936703 -22.8499889 11.2020512 # C5
37 14 2 0.0 -3.05893803 -23.7453403 9.95518398 # C6
38 14 1 0.0 -4.43530703 -23.7533112 9.27687836 # C7
39 15 1 0.0 -5.33335590 -22.4221611 -11.1218214 # C1
40 15 2 0.0 -4.66042709 -23.7519207 -11.4811993 # C2
41 15 2 0.0 -3.50511193 -23.6691933 -12.4962921 # C3
42 15 2 0.0 -3.88902211 -23.2131634 -13.9229679 # C4
43 15 2 0.0 -3.72994900 -21.7061310 -14.1928701 # C5
44 15 2 0.0 -4.06197214 -21.2840137 -15.6336803 # C6
45 15 1 0.0 -5.54816103 -21.3912621 -16.0001411 # C7
46 16 1 0.0 -2.08488202 4.19536591 3.61326694 # C1
47 16 2 0.0 -1.64386904 5.64031982 3.35276103 # C2
48 16 2 0.0 -2.77523899 6.67846394 3.23330593 # C3
49 16 2 0.0 -3.72610402 6.50740004 2.02609992 # C4
50 16 2 0.0 -5.00786877 5.70443487 2.31180096 # C5
51 16 2 0.0 -5.96546078 5.59594202 1.11363494 # C6
52 16 1 0.0 -5.44453192 4.72690201 -3.87349986E-02 # C7
53 17 1 0.0 4.54221106 -4.99751616 -4.14006901 # C1
54 17 2 0.0 5.62990618 -5.81494284 -4.84645414 # C2
55 17 2 0.0 5.16825199 -7.13572979 -5.49019909 # C3
56 17 2 0.0 4.66090298 -8.22298336 -4.51488781 # C4
57 17 2 0.0 3.13821793 -8.24115086 -4.29038715 # C5
58 17 2 0.0 2.64993691 -9.36599731 -3.36266994 # C6
59 17 1 0.0 3.06101394 -9.20063972 -1.89357901 # C7
60 18 1 0.0 -18.5198307 16.2485027 13.6060572 # C1
61 18 2 0.0 -17.2235279 15.6630154 14.1779366 # C2
62 18 2 0.0 -17.1253109 14.1260424 14.1867514 # C3
63 18 2 0.0 -18.1324768 13.3886986 15.0992718 # C4
64 18 2 0.0 -19.4248981 12.9231834 14.4048376 # C5
65 18 2 0.0 -20.3857613 12.1422834 15.3165913 # C6
66 18 1 0.0 -21.0478153 12.9871492 16.4131489 # C7
67 19 1 0.0 9.80079937 17.5514278 16.7685509 # C1
68 19 2 0.0 8.76049805 16.6318512 17.4184742 # C2
69 19 2 0.0 8.49088192 15.3008738 16.6919651 # C3
70 19 2 0.0 7.85282993 15.4132710 15.2880392 # C4
71 19 2 0.0 8.84936142 15.4141569 14.1149120 # C5
72 19 2 0.0 8.19057369 15.4685192 12.7266045 # C6
73 19 1 0.0 7.50559282 16.8023701 12.4007311 # C7
74 20 1 0.0 14.9699144 -10.0860538 11.1793213 # C1
75 20 2 0.0 15.0825319 -11.4919376 10.5784426 # C2
76 20 2 0.0 14.6311092 -12.6506691 11.4870529 # C3
77 20 2 0.0 15.4741650 -12.8781157 12.7630930 # C4
78 20 2 0.0 14.9447947 -12.1814861 14.0294952 # C5
79 20 2 0.0 15.7655163 -12.4679585 15.2978430 # C6
80 20 1 0.0 17.1662712 -11.8415260 15.3025780 # C7
81 21 1 0.0 6.45424604 -1.30469799 -20.8741188 # C1
82 21 2 0.0 5.74423504 5.32959998E-02 -20.9186459 # C2
83 21 2 0.0 6.65592098 1.28503799 -21.0724354 # C3
84 21 2 0.0 7.61709213 1.56696296 -19.8945465 # C4
85 21 2 0.0 9.02979946 0.975129008 -20.0471554 # C5
86 21 2 0.0 9.98565483 1.31618798 -18.8920040 # C6
87 21 1 0.0 9.63573837 0.642507970 -17.5584869 # C7
88 22 1 0.0 21.5222931 -5.69386721 -3.97245693 # C1
89 22 2 0.0 22.9205647 -5.32941914 -4.48457479 # C2
90 22 2 0.0 23.7503872 -4.40357685 -3.57560802 # C3
91 22 2 0.0 23.1970711 -2.97296000 -3.38085294 # C4
92 22 2 0.0 22.3151112 -2.77686310 -2.13466191 # C5
93 22 2 0.0 21.8233986 -1.33447695 -1.92948496 # C6
94 22 1 0.0 20.7996883 -0.858830988 -2.96887493 # C7
95 23 1 0.0 9.25793266 -23.7504463 15.2809286 # C1
96 23 2 0.0 9.92796612 -22.4002609 15.0011082 # C2
97 23 2 0.0 9.14880371 -21.1538181 15.4607792 # C3
98 23 2 0.0 7.80286503 -20.8949451 14.7451038 # C4
99 23 2 0.0 6.56316423 -21.4652596 15.4572706 # C5
100 23 2 0.0 5.23099518 -21.1466846 14.7585640 # C6
101 23 1 0.0 5.03083897 -21.8630524 13.4164362 # C7
102 24 1 0.0 1.40623498 6.85831785 -20.0922070 # C1
103 24 2 0.0 2.18572807 5.61574793 -19.6464977 # C2
104 24 2 0.0 1.34796596 4.48192883 -19.0263214 # C3
105 24 2 0.0 0.652522981 4.81013918 -17.6849079 # C4
106 24 2 0.0 -0.800325990 5.30417681 -17.8051376 # C5
107 24 2 0.0 -1.49088597 5.56934404 -16.4571133 # C6
108 24 1 0.0 -0.938301027 6.77622890 -15.6872873 # C7
109 25 1 0.0 -14.8203402 18.8987331 18.9629135 # C1
110 25 2 0.0 -15.9947205 18.8861485 19.9482651 # C2
111 25 2 0.0 -17.4004555 18.9368496 19.3210907 # C3
112 25 2 0.0 -17.7547798 20.2341709 18.5580902 # C4
113 25 2 0.0 -17.4940186 20.1930027 17.0416451 # C5
114 25 2 0.0 -17.9070587 21.4720478 16.2947865 # C6
115 25 1 0.0 -17.0394268 22.6982994 16.6079483 # C7
116 26 1 0.0 8.15406322 -16.0383091 19.7315063 # C1
117 26 2 0.0 9.08509254 -15.5430984 20.8442478 # C2
118 26 2 0.0 10.0134487 -16.6026821 21.4667015 # C3
119 26 2 0.0 9.31456470 -17.7430058 22.2425728 # C4
120 26 2 0.0 9.03706169 -19.0166798 21.4240112 # C5
121 26 2 0.0 8.39431381 -20.1577606 22.2297211 # C6
122 26 1 0.0 6.94841814 -19.8894463 22.6678410 # C7
123 27 1 0.0 -21.3896427 -2.03022003 -4.95559120 # C1
124 27 2 0.0 -20.6715412 -3.37489009 -5.11820078 # C2
125 27 2 0.0 -19.4318027 -3.58793902 -4.22956896 # C3
126 27 2 0.0 -18.2322788 -2.65216303 -4.50564814 # C4
127 27 2 0.0 -18.1735439 -1.38821101 -3.62913609 # C5
128 27 2 0.0 -16.9424896 -0.501852989 -3.88060093 # C6
129 27 1 0.0 -16.9369755 0.205507994 -5.24227810 # C7
130 28 1 0.0 19.1117344 13.2818470 5.07277012 # C1
131 28 2 0.0 19.5611954 14.4330063 5.97999907 # C2
132 28 2 0.0 21.0184784 14.8992920 5.80416393 # C3
133 28 2 0.0 22.1087055 13.8700275 6.18201208 # C4
134 28 2 0.0 22.6392078 13.0204000 5.01325083 # C5
135 28 2 0.0 23.7625637 12.0445414 5.40071297 # C6
136 28 1 0.0 23.3133278 10.8829966 6.29712486 # C7
137 29 1 0.0 -12.4874973 -9.20678902 6.74523401 # C1
138 29 2 0.0 -12.5622597 -7.91139412 7.56169415 # C2
139 29 2 0.0 -11.3706245 -6.94807196 7.40669107 # C3
140 29 2 0.0 -10.0090036 -7.46712399 7.92372894 # C4
141 29 2 0.0 -9.11788559 -8.13574409 6.86158180 # C5
142 29 2 0.0 -7.74595594 -8.59235764 7.38471508 # C6
143 29 1 0.0 -7.80055094 -9.77276230 8.36360264 # C7
144 30 1 0.0 -4.56169081 14.3155670 22.6953468 # C1
145 30 2 0.0 -3.62312603 14.9081173 23.7528095 # C2
146 30 2 0.0 -2.23095202 15.3370714 23.2529488 # C3
147 30 2 0.0 -1.31475604 14.2003536 22.7438183 # C4
148 30 2 0.0 -1.36448801 13.9505720 21.2257824 # C5
149 30 2 0.0 -0.403537005 12.8555269 20.7340450 # C6
150 30 1 0.0 -0.779371023 11.4353123 21.1770935 # C7
151 31 1 0.0 14.4793901 21.0011234 -6.06594086 # C1
152 31 2 0.0 15.3613596 22.2475471 -6.20306396 # C2
153 31 2 0.0 14.6157780 23.5860634 -6.35956287 # C3
154 31 2 0.0 13.7836866 23.7501831 -7.65240622 # C4
155 31 2 0.0 12.2969990 23.3720074 -7.52574682 # C5
156 31 2 0.0 11.4765911 23.5974503 -8.80655098 # C6
157 31 1 0.0 11.8222656 22.6438847 -9.95797539 # C7
158 32 1 0.0 -16.4909267 -22.1735249 -4.68393803 # C1
159 32 2 0.0 -16.9120159 -23.2703552 -5.66876984 # C2
160 32 2 0.0 -18.4180145 -23.3535709 -5.98030186 # C3
161 32 2 0.0 -19.3334236 -23.7437706 -4.79686403 # C4
162 32 2 0.0 -19.9451256 -22.5605659 -4.02540684 # C5
163 32 2 0.0 -20.8969669 -22.9713974 -2.88981295 # C6
164 32 1 0.0 -20.2075672 -23.6459293 -1.69637799 # C7
165 33 1 0.0 -8.72755146 17.2132645 8.30581665 # C1
166 33 2 0.0 -9.99136543 17.8978825 7.77260303 # C2
167 33 2 0.0 -9.76942730 18.9775772 6.69695902 # C3
168 33 2 0.0 -8.99989986 20.2388802 7.15269899 # C4
169 33 2 0.0 -7.48286915 20.2086067 6.89384985 # C5
170 33 2 0.0 -6.74670601 21.4954376 7.30187178 # C6
171 33 1 0.0 -6.68075085 21.7362442 8.81587791 # C7
172 34 1 0.0 -0.622640014 11.5001936 13.7810745 # C1
173 34 2 0.0 -0.897713006 12.2929010 12.4980326 # C2
174 34 2 0.0 -1.48198795 13.7047682 12.6910706 # C3
175 34 2 0.0 -2.89691806 13.7728014 13.3108301 # C4
176 34 2 0.0 -2.93360400 13.9613323 14.8380527 # C5
177 34 2 0.0 -4.34930897 14.0840979 15.4254751 # C6
178 34 1 0.0 -5.17422104 12.7914553 15.3693657 # C7
179 35 1 0.0 -19.4963150 -5.93952799 12.6474247 # C1
180 35 2 0.0 -20.2956352 -4.92518187 11.8213282 # C2
181 35 2 0.0 -21.2496815 -4.01303196 12.6149197 # C3
182 35 2 0.0 -22.4319477 -4.71883106 13.3183746 # C4
183 35 2 0.0 -22.1843987 -5.10070515 14.7888136 # C5
184 35 2 0.0 -23.3925018 -5.74886513 15.4850397 # C6
185 35 1 0.0 -23.7405300 -7.15373278 14.9753551 # C7
186 36 1 0.0 11.5554781 -18.1942444 -0.954689026 # C1
187 36 2 0.0 10.6884995 -19.3415966 -0.423485011 # C2
188 36 2 0.0 9.59029293 -19.8519802 -1.37504399 # C3
189 36 2 0.0 8.46296120 -18.8475418 -1.70818496 # C4
190 36 2 0.0 8.67203808 -18.0338917 -2.99797511 # C5
191 36 2 0.0 7.51265001 -17.0835991 -3.34020400 # C6
192 36 1 0.0 7.36275387 -15.8942680 -2.38230300 # C7
193 37 1 0.0 -14.2521658 -23.7558937 -10.9882183 # C1
194 37 2 0.0 -14.4177256 -22.3894806 -11.6633129 # C2
195 37 2 0.0 -15.1622915 -21.3192043 -10.8434715 # C3
196 37 2 0.0 -16.6513252 -21.6097851 -10.5449820 # C4
197 37 2 0.0 -16.9262295 -22.2924347 -9.19305134 # C5
198 37 2 0.0 -18.4168587 -22.5195217 -8.89169884 # C6
199 37 1 0.0 -19.0912895 -23.5720539 -9.78157139 # C7
200 38 1 0.0 -14.0430059 20.6960144 -13.5292130 # C1
201 38 2 0.0 -12.7700052 20.3797207 -14.3227320 # C2
202 38 2 0.0 -12.4391708 18.8857079 -14.4973221 # C3
203 38 2 0.0 -12.1008263 18.1115818 -13.2023296 # C4
204 38 2 0.0 -13.2876148 17.3823872 -12.5472679 # C5
205 38 2 0.0 -12.9172668 16.5723572 -11.2938528 # C6
206 38 1 0.0 -12.5198641 17.4248962 -10.0814991 # C7
207 39 1 0.0 -18.3897362 -13.8837204 -23.3174191 # C1
208 39 2 0.0 -18.6783371 -12.4489880 -23.7740364 # C2
209 39 2 0.0 -18.3455009 -11.3395252 -22.7589874 # C3
210 39 2 0.0 -19.1815815 -11.3391256 -21.4583263 # C4
211 39 2 0.0 -18.5474415 -12.0888748 -20.2729797 # C5
212 39 2 0.0 -19.3683872 -12.0267601 -18.9743099 # C6
213 39 1 0.0 -20.6861801 -12.8116512 -19.0181274 # C7
214 40 1 0.0 -14.6950684 9.64359283 10.8435774 # C1
215 40 2 0.0 -13.7513027 8.73569775 11.6406202 # C2
216 40 2 0.0 -12.2683535 9.15128613 11.6531591 # C3
217 40 2 0.0 -11.5396004 9.10022831 10.2904158 # C4
218 40 2 0.0 -11.5125179 10.4284964 9.51306725 # C5
219 40 2 0.0 -10.7336369 10.3694267 8.18860054 # C6
220 40 1 0.0 -11.3992224 9.51956844 7.09805584 # C7
221 41 1 0.0 6.93554211 1.10143900 -2.14165998 # C1
222 41 2 0.0 7.17386103 1.15381002 -0.628151000 # C2
223 41 2 0.0 6.20228386 0.327814013 0.235432997 # C3
224 41 2 0.0 4.72563219 0.786072016 0.219494998 # C4
225 41 2 0.0 3.82854104 6.64929971E-02 -0.803605974 # C5
226 41 2 0.0 2.35287094 0.496681988 -0.762507975 # C6
227 41 1 0.0 2.09509397 1.92828596 -1.25099194 # C7
228 42 1 0.0 5.64916611 17.4450436 1.69840598 # C1
229 42 2 0.0 5.41259480 18.9542179 1.56927299 # C2
230 42 2 0.0 4.66103506 19.6202965 2.73696589 # C3
231 42 2 0.0 3.19447494 19.1745148 2.94003010 # C4
232 42 2 0.0 2.99150395 18.0370445 3.95701694 # C5
233 42 2 0.0 1.52125704 17.6492710 4.18584013 # C6
234 42 1 0.0 0.852463007 16.9610672 2.98849106 # C7
235 43 1 0.0 -15.3858309 1.44847405 11.7044773 # C1
236 43 2 0.0 -14.1008854 1.62153304 10.8864250 # C2
237 43 2 0.0 -14.2903719 2.02677894 9.41269493 # C3
238 43 2 0.0 -14.9985771 0.989279985 8.51114273 # C4
239 43 2 0.0 -16.5188255 1.18025100 8.36391830 # C5
240 43 2 0.0 -17.1932354 0.173043996 7.41784191 # C6
241 43 1 0.0 -17.2284851 -1.26762104 7.94490814 # C7
242 44 1 0.0 -8.35229492 -3.21048903 -12.0098028 # C1
243 44 2 0.0 -8.33694935 -2.51349401 -13.3751640 # C2
244 44 2 0.0 -7.95661211 -1.02109599 -13.3650618 # C3
245 44 2 0.0 -8.94045162 -7.68259987E-02 -12.6362514 # C4
246 44 2 0.0 -8.59712124 0.215978995 -11.1646233 # C5
247 44 2 0.0 -9.55562592 1.20196998 -10.4765482 # C6
248 44 1 0.0 -10.9691734 0.653420985 -10.2408915 # C7
249 45 1 0.0 22.8683586 -9.66508675 12.7670212 # C1
250 45 2 0.0 23.7524891 -8.98367310 13.8178453 # C2
251 45 2 0.0 23.0731945 -8.65959835 15.1615496 # C3
252 45 2 0.0 21.9330826 -7.61644220 15.1093540 # C4
253 45 2 0.0 20.5166645 -8.20217419 14.9680147 # C5
254 45 2 0.0 19.3946781 -7.15077591 14.9761972 # C6
255 45 1 0.0 19.3580933 -6.25168610 13.7332754 # C7
256 46 1 0.0 -10.6841936 -10.4311543 9.50938129 # C1
257 46 2 0.0 -9.65875053 -11.5702543 9.47527122 # C2
258 46 2 0.0 -10.0198517 -12.7748899 8.58618927 # C3
259 46 2 0.0 -11.2569227 -13.5925932 9.02410698 # C4
260 46 2 0.0 -12.5812616 -13.1845779 8.35406971 # C5
261 46 2 0.0 -13.7870169 -14.0478497 8.76060486 # C6
262 46 1 0.0 -14.2395821 -13.8616524 10.2149334 # C7
263 47 1 0.0 -21.4792786 9.96142673 -23.0200367 # C1
264 47 2 0.0 -21.2383804 9.58253193 -21.5542088 # C2
265 47 2 0.0 -22.3221111 10.0309668 -20.5559883 # C3
266 47 2 0.0 -22.4851761 11.5578241 -20.3746815 # C4
267 47 2 0.0 -23.5653324 12.2094994 -21.2566586 # C5
268 47 2 0.0 -23.7500134 13.7173481 -21.0186634 # C6
269 47 1 0.0 -22.5712242 14.5825520 -21.4838848 # C7
270 48 1 0.0 -21.0656185 11.5223322 -10.2433672 # C1
271 48 2 0.0 -20.0507832 11.0290689 -9.20555782 # C2
272 48 2 0.0 -19.6197472 9.55594921 -9.33258343 # C3
273 48 2 0.0 -20.7263088 8.50362873 -9.08989143 # C4
274 48 2 0.0 -21.4457417 8.00699615 -10.3568039 # C5
275 48 2 0.0 -22.5017052 6.91958618 -10.0982771 # C6
276 48 1 0.0 -23.7468281 7.40956306 -9.34717941 # C7
277 49 1 0.0 -8.83467865 3.92357612 13.4494343 # C1
278 49 2 0.0 -7.43561792 4.38623381 13.8723078 # C2
279 49 2 0.0 -6.66159916 3.42992210 14.7987919 # C3
280 49 2 0.0 -7.26648092 3.21277308 16.2051048 # C4
281 49 2 0.0 -8.18804359 1.98712397 16.3385468 # C5
282 49 2 0.0 -8.73204803 1.75751400 17.7582989 # C6
283 49 1 0.0 -9.74202538 2.81226993 18.2294579 # C7
284 50 1 0.0 -5.33957577 -0.308845997 -19.2673702 # C1
285 50 2 0.0 -4.91249418 -0.195185006 -17.7994022 # C2
286 50 2 0.0 -3.50608802 0.380865008 -17.5500011 # C3
287 50 2 0.0 -2.32416201 -0.471060991 -18.0677147 # C4
288 50 2 0.0 -1.81412697 -9.75940004E-02 -19.4711685 # C5
289 50 2 0.0 -0.602315009 -0.918681026 -19.9420013 # C6
290 50 1 0.0 -0.909231007 -2.39371490 -20.2329140 # C7
291 51 1 0.0 7.75054312 -2.97764397 9.26485443 # C1
292 51 2 0.0 7.84620285 -2.59881711 10.7472792 # C2
293 51 2 0.0 8.38318443 -1.18703604 11.0481720 # C3
294 51 2 0.0 9.85317707 -0.922568023 10.6482573 # C4
295 51 2 0.0 10.0491962 -0.288569987 9.25940037 # C5
296 51 2 0.0 11.5139008 1.85630005E-02 8.90632153 # C6
297 51 1 0.0 12.3857031 -1.22333395 8.67783260 # C7
298 52 1 0.0 12.8521872 3.44517207 2.52633500 # C1
299 52 2 0.0 12.8511410 1.95578802 2.88962698 # C2
300 52 2 0.0 11.4857454 1.24667394 2.81989503 # C3
301 52 2 0.0 10.4196110 1.73017597 3.83001304 # C4
302 52 2 0.0 9.45918179 2.81020498 3.30047107 # C5
303 52 2 0.0 8.37194633 3.23440695 4.30163288 # C6
304 52 1 0.0 8.89523983 4.01692200 5.51340389 # C7
305 53 1 0.0 -16.0563393 0.183989003 -1.36940897 # C1
306 53 2 0.0 -14.6005268 -0.158041000 -1.03195500 # C2
307 53 2 0.0 -14.3854179 -1.42930198 -0.189556003 # C3
308 53 2 0.0 -14.9518661 -1.39208198 1.24867296 # C4
309 53 2 0.0 -16.3643837 -1.98185599 1.41073203 # C5
310 53 2 0.0 -16.8844204 -1.98718703 2.85775900 # C6
311 53 1 0.0 -17.1882553 -0.595525980 3.42830205 # C7
312 54 1 0.0 -22.2821503 -23.7139721 -23.7450962 # C1
313 54 2 0.0 -23.6163750 -23.1375980 -23.2573643 # C2
314 54 2 0.0 -23.5202141 -21.9542866 -22.2762756 # C3
315 54 2 0.0 -22.8878479 -22.2657509 -20.9001026 # C4
316 54 2 0.0 -21.3783741 -21.9833641 -20.7949867 # C5
317 54 2 0.0 -20.7822857 -22.2453957 -19.4020138 # C6
318 54 1 0.0 -20.7314034 -23.7257786 -19.0014744 # C7
319 55 1 0.0 7.33501387 -2.46939993 -0.760628998 # C1
320 55 2 0.0 5.81864023 -2.29178405 -0.899585009 # C2
321 55 2 0.0 5.22322989 -2.64058495 -2.27647901 # C3
322 55 2 0.0 5.66847086 -1.74234402 -3.45362592 # C4
323 55 2 0.0 6.86773396 -2.26984000 -4.26159716 # C5
324 55 2 0.0 7.25673199 -1.39054298 -5.46154499 # C6
325 55 1 0.0 7.85993481 -3.12280003E-02 -5.08343887 # C7
326 56 1 0.0 1.07503104 16.3246517 16.6437836 # C1
327 56 2 0.0 2.27054691 15.7044802 15.9114084 # C2
328 56 2 0.0 1.96923900 14.4467258 15.0751791 # C3
329 56 2 0.0 1.51372099 13.1999044 15.8680811 # C4
330 56 2 0.0 -1.05029996E-02 13.0221081 15.9882126 # C5
331 56 2 0.0 -0.441002011 11.7461367 16.7304554 # C6
332 56 1 0.0 -0.126678005 11.7487164 18.2323704 # C7
333 57 1 0.0 -16.4760685 -8.22704697 -23.7509899 # C1
334 57 2 0.0 -16.6861858 -6.75473690 -23.3789673 # C2
335 57 2 0.0 -17.1884308 -6.48692083 -21.9478703 # C3
336 57 2 0.0 -18.6051788 -7.01143312 -21.6185322 # C4
337 57 2 0.0 -18.6514854 -8.40521336 -20.9669704 # C5
338 57 2 0.0 -20.0653267 -8.88214684 -20.5955601 # C6
339 57 1 0.0 -20.9644775 -9.19965363 -21.7977543 # C7
340 58 1 0.0 16.4015179 4.99118996 4.26641798 # C1
341 58 2 0.0 17.4981785 4.44937801 5.19054890 # C2
342 58 2 0.0 18.1726322 5.48221302 6.11270618 # C3
343 58 2 0.0 18.9924393 6.58669519 5.40645695 # C4
344 58 2 0.0 18.2281208 7.89437580 5.13243389 # C5
345 58 2 0.0 19.0781631 8.99839687 4.48211098 # C6
346 58 1 0.0 19.4940338 8.70919895 3.03367400 # C7
347 59 1 0.0 -21.1917248 -4.23002386 -12.5243502 # C1
348 59 2 0.0 -19.8959961 -3.91634607 -13.2812786 # C2
349 59 2 0.0 -18.9823170 -2.85465002 -12.6409664 # C3
350 59 2 0.0 -19.5581131 -1.42152798 -12.5676413 # C4
351 59 2 0.0 -20.2607632 -1.06587994 -11.2451067 # C5
352 59 2 0.0 -20.7746105 0.381532997 -11.1722298 # C6
353 59 1 0.0 -21.9537315 0.684394002 -12.1063099 # C7
354 60 1 0.0 16.7910576 -3.37684011 -9.17785740 # C1
355 60 2 0.0 17.9466038 -3.32973194 -10.1842089 # C2
356 60 2 0.0 17.9659443 -4.45068216 -11.2401953 # C3
357 60 2 0.0 18.1879539 -5.88329220 -10.7025185 # C4
358 60 2 0.0 16.9030933 -6.68479586 -10.4267893 # C5
359 60 2 0.0 17.1478119 -8.12534904 -9.94796181 # C6
360 60 1 0.0 17.7497578 -8.23294067 -8.54061031 # C7
361 61 1 0.0 -14.2282820 -13.8177671 17.7976265 # C1
362 61 2 0.0 -15.7063208 -14.0589991 18.1254253 # C2
363 61 2 0.0 -16.3888931 -12.9820280 18.9892769 # C3
364 61 2 0.0 -15.8548431 -12.8334427 20.4326992 # C4
365 61 2 0.0 -14.7708759 -11.7570143 20.6214256 # C5
366 61 2 0.0 -14.2959108 -11.5867872 22.0739346 # C6
367 61 1 0.0 -13.4899721 -12.7722464 22.6213894 # C7
368 62 1 0.0 0.301912993 -15.7997131 3.93702292 # C1
369 62 2 0.0 0.991659999 -17.0810032 4.41950417 # C2
370 62 2 0.0 6.10699989E-02 -18.2620583 4.75285578 # C3
371 62 2 0.0 -0.896602988 -18.0525875 5.94857216 # C4
372 62 2 0.0 -2.30143499 -17.5428905 5.57984591 # C5
373 62 2 0.0 -3.25480509 -17.3968239 6.77738714 # C6
374 62 1 0.0 -2.88656902 -16.2667103 7.74785089 # C7
375 63 1 0.0 -13.3667278 18.7186794 11.7009029 # C1
376 63 2 0.0 -12.7135658 19.8451500 10.8917761 # C2
377 63 2 0.0 -13.6766710 20.8754234 10.2729244 # C3
378 63 2 0.0 -14.6354361 20.3377647 9.18552017 # C4
379 63 2 0.0 -16.0242844 19.9090500 9.69208241 # C5
380 63 2 0.0 -16.9804173 19.4321938 8.58629131 # C6
381 63 1 0.0 -16.5883427 18.0966434 7.94042778 # C7
382 64 1 0.0 23.5107765 12.5140858 -20.6362553 # C1
383 64 2 0.0 22.8883076 12.1732121 -21.9951458 # C2
384 64 2 0.0 21.4647331 11.5867987 -21.9555664 # C3
385 64 2 0.0 21.3217735 10.2016239 -21.2835503 # C4
386 64 2 0.0 20.9406567 10.2342510 -19.7925835 # C5
387 64 2 0.0 20.7475204 8.84634590 -19.1595154 # C6
388 64 1 0.0 22.0387402 8.03049660 -19.0122337 # C7
389 65 1 0.0 -23.7557373 -0.912202001 -22.6889248 # C1
390 65 2 0.0 -22.9189892 -1.63429594 -23.7513161 # C2
391 65 2 0.0 -21.3970795 -1.64726198 -23.5154533 # C3
392 65 2 0.0 -20.6928406 -0.271614999 -23.5644379 # C4
393 65 2 0.0 -20.5154819 0.421227008 -22.2014217 # C5
394 65 2 0.0 -19.7620544 1.76004696 -22.2667255 # C6
395 65 1 0.0 -20.5345745 2.89009809 -22.9600887 # C7
396 66 1 0.0 -12.2729273 23.5963249 -18.2791023 # C1
397 66 2 0.0 -12.1694269 22.1430893 -17.8019829 # C2
398 66 2 0.0 -13.3122149 21.2078037 -18.2393417 # C3
399 66 2 0.0 -14.7116909 21.5371799 -17.6703682 # C4
400 66 2 0.0 -15.5948391 22.4161472 -18.5741196 # C5
401 66 2 0.0 -17.0021019 22.6831932 -18.0149632 # C6
402 66 1 0.0 -17.0317364 23.5874176 -16.7755852 # C7
403 67 1 0.0 9.82607365 20.7366695 -13.4449883 # C1
404 67 2 0.0 10.6538935 21.6050148 -12.4905567 # C2
405 67 2 0.0 12.1524620 21.2621899 -12.3969040 # C3
406 67 2 0.0 12.4938889 19.8767185 -11.8013763 # C4
407 67 2 0.0 12.6896210 18.7515011 -12.8333015 # C5
408 67 2 0.0 13.0848227 17.3965893 -12.2230673 # C6
409 67 1 0.0 11.9756413 16.7204475 -11.4063063 # C7
410 68 1 0.0 -2.09410310 -18.6530838 8.93073368 # C1
411 68 2 0.0 -2.86475205 -19.7214184 9.71495819 # C2
412 68 2 0.0 -4.33427811 -19.9295235 9.30362701 # C3
413 68 2 0.0 -5.28248215 -18.7337055 9.55198288 # C4
414 68 2 0.0 -5.47579384 -17.7917175 8.35007191 # C5
415 68 2 0.0 -6.46666479 -16.6429672 8.60087967 # C6
416 68 1 0.0 -5.97427988 -15.5863333 9.59869480 # C7
417 69 1 0.0 -2.23220801 23.7550335 1.95206201 # C1
418 69 2 0.0 -2.97006106 22.8155422 0.991241992 # C2
419 69 2 0.0 -2.15833402 21.6168613 0.465624988 # C3
420 69 2 0.0 -0.948390007 21.9608631 -0.433515012 # C4
421 69 2 0.0 0.401237994 22.0677738 0.298862010 # C5
422 69 2 0.0 1.59882903 22.3534279 -0.622295976 # C6
423 69 1 0.0 1.60236001 23.7571087 -1.24214900 # C7
424 70 1 0.0 19.0386772 -10.3908863 -7.40563679 # C1
425 70 2 0.0 18.3980808 -10.9004974 -8.70185375 # C2
426 70 2 0.0 16.8583755 -10.9266996 -8.72696972 # C3
427 70 2 0.0 16.1818352 -11.9030867 -7.73716402 # C4
428 70 2 0.0 15.7710600 -11.2864332 -6.38797808 # C5
429 70 2 0.0 15.0487652 -12.2601957 -5.44223499 # C6
430 70 1 0.0 15.9379787 -13.3783121 -4.88217402 # C7
431 71 1 0.0 16.7257576 15.5318184 9.51723480 # C1
432 71 2 0.0 17.7739925 14.5802822 10.1054773 # C2
433 71 2 0.0 17.2345963 13.4725513 11.0295973 # C3
434 71 2 0.0 16.5891094 13.9486380 12.3515043 # C4
435 71 2 0.0 15.0610991 14.1285686 12.3055611 # C5
436 71 2 0.0 14.4337626 14.5465336 13.6457520 # C6
437 71 1 0.0 14.7839012 15.9718227 14.0935326 # C7
438 72 1 0.0 -16.4255486 -1.23529506 12.1397438 # C1
439 72 2 0.0 -17.6712055 -0.587948024 11.5236874 # C2
440 72 2 0.0 -18.7813797 -0.187812999 12.5133410 # C3
441 72 2 0.0 -19.4730911 -1.35110795 13.2610273 # C4
442 72 2 0.0 -18.8839645 -1.68175805 14.6441031 # C5
443 72 2 0.0 -19.6229172 -2.80255508 15.3938484 # C6
444 72 1 0.0 -19.4582596 -4.19662094 14.7741528 # C7
445 73 1 0.0 -9.20497131 15.2419415 6.31989986E-02 # C1
446 73 2 0.0 -9.08928394 16.7667866 -4.50190008E-02 # C2
447 73 2 0.0 -8.74722958 17.3186684 -1.44159901 # C3
448 73 2 0.0 -7.35329723 16.9427624 -1.99513197 # C4
449 73 2 0.0 -7.32230186 15.6959705 -2.89726901 # C5
450 73 2 0.0 -5.93736076 15.3742800 -3.48276901 # C6
451 73 1 0.0 -4.90812111 14.8934259 -2.45126605 # C7
452 74 1 0.0 14.3570967 3.59135795 15.3866978 # C1
453 74 2 0.0 14.8965702 4.67511606 16.3272724 # C2
454 74 2 0.0 16.4026737 4.97639799 16.2137470 # C3
455 74 2 0.0 17.3551044 3.82717299 16.6173687 # C4
456 74 2 0.0 17.8327179 2.93556404 15.4571009 # C5
457 74 2 0.0 18.8236427 1.83557701 15.8723745 # C6
458 74 1 0.0 18.2122765 0.722593009 16.7338009 # C7
459 75 1 0.0 -3.29496098 13.2114801 -22.7023144 # C1
460 75 2 0.0 -1.78468096 13.1446438 -22.9569416 # C2
461 75 2 0.0 -1.00071096 12.1363955 -22.0962257 # C3
462 75 2 0.0 -0.964982986 12.4264669 -20.5778923 # C4
463 75 2 0.0 -2.04878902 11.7128143 -19.7500267 # C5
464 75 2 0.0 -1.95902395 11.9697599 -18.2366600 # C6
465 75 1 0.0 -2.30496407 13.4038954 -17.8145962 # C7
466 76 1 0.0 -4.38211918 16.1642513 13.3814516 # C1
467 76 2 0.0 -3.22200394 16.6298199 12.4939690 # C2
468 76 2 0.0 -2.77495599 18.0915909 12.6820745 # C3
469 76 2 0.0 -3.81036806 19.1715736 12.2918072 # C4
470 76 2 0.0 -4.68413401 19.6883392 13.4488659 # C5
471 76 2 0.0 -5.66637278 20.8020802 13.0499392 # C6
472 76 1 0.0 -6.80858994 20.3430843 12.1338511 # C7
473 77 1 0.0 -1.49910498 -7.13350821 -12.1844025 # C1
474 77 2 0.0 -2.02012205 -6.86415482 -10.7679853 # C2
475 77 2 0.0 -1.14405203 -5.95040989 -9.89072514 # C3
476 77 2 0.0 0.251780003 -6.50312996 -9.52071285 # C4
477 77 2 0.0 1.39606905 -6.06734085 -10.4534464 # C5
478 77 2 0.0 2.78330112 -6.58110285 -10.0339317 # C6
479 77 1 0.0 2.97273397 -8.09594727 -10.1885881 # C7
480 78 1 0.0 8.51685333 10.9228640 -21.6109943 # C1
481 78 2 0.0 8.57918358 11.8768253 -20.4125309 # C2
482 78 2 0.0 7.24639416 12.1299896 -19.6834278 # C3
483 78 2 0.0 6.15553522 12.8594952 -20.5011082 # C4
484 78 2 0.0 5.15129709 11.9397469 -21.2186527 # C5
485 78 2 0.0 4.04198599 12.6862698 -21.9779205 # C6
486 78 1 0.0 4.52503681 13.4510603 -23.2174015 # C7
487 79 1 0.0 10.0610476 -17.7674942 6.10938597 # C1
488 79 2 0.0 10.4479971 -19.0513783 6.85245991 # C2
489 79 2 0.0 10.2900686 -20.3620605 6.05924892 # C3
490 79 2 0.0 8.84404182 -20.7482815 5.67118311 # C4
491 79 2 0.0 8.39855957 -20.2912788 4.27047110 # C5
492 79 2 0.0 6.97838402 -20.7355785 3.88310289 # C6
493 79 1 0.0 5.85945988 -20.0481300 4.67681313 # C7
494 80 1 0.0 12.1335421 -5.38343477 14.9776163 # C1
495 80 2 0.0 10.6593637 -5.15910006 15.3335886 # C2
496 80 2 0.0 10.0558395 -6.14248896 16.3537426 # C3
497 80 2 0.0 9.96017170 -7.61682606 15.8977461 # C4
498 80 2 0.0 11.1454678 -8.50753689 16.3112774 # C5
499 80 2 0.0 11.0023441 -9.98155594 15.8975868 # C6
500 80 1 0.0 11.0920715 -10.2282200 14.3857470 # C7
501 81 1 0.0 -5.29321718 -0.410714000 20.0470791 # C1
502 81 2 0.0 -4.24865723 0.625747025 19.6170921 # C2
503 81 2 0.0 -4.18642187 0.933423996 18.1092892 # C3
504 81 2 0.0 -3.74052310 -0.233576000 17.1982250 # C4
505 81 2 0.0 -4.88565016 -1.06650198 16.5947208 # C5
506 81 2 0.0 -4.42167282 -2.18486810 15.6469135 # C6
507 81 1 0.0 -3.68571091 -3.33945894 16.3396149 # C7
508 82 1 0.0 5.21846581 14.9306211 -17.1449757 # C1
509 82 2 0.0 4.21448421 13.7874117 -17.3329601 # C2
510 82 2 0.0 4.05563784 13.2605152 -18.7714176 # C3
511 82 2 0.0 3.46399808 14.2564421 -19.7955494 # C4
512 82 2 0.0 4.50109291 15.0535440 -20.6069431 # C5
513 82 2 0.0 3.89182901 15.9950972 -21.6589108 # C6
514 82 1 0.0 3.13721800 17.1965675 -21.0744553 # C7
515 83 1 0.0 12.6944828 -7.00693178 19.9969902 # C1
516 83 2 0.0 13.7250853 -7.34665489 21.0799007 # C2
517 83 2 0.0 14.5014544 -8.66193008 20.8816223 # C3
518 83 2 0.0 13.6629372 -9.95934963 20.9475327 # C4
519 83 2 0.0 13.1693087 -10.4887581 19.5890923 # C5
520 83 2 0.0 12.3870916 -11.8099432 19.6725445 # C6
521 83 1 0.0 11.0134459 -11.6929741 20.3463154 # C7
522 84 1 0.0 13.9194717 -8.65396404 -1.58858502 # C1
523 84 2 0.0 13.9484653 -9.46684742 -0.289112985 # C2
524 84 2 0.0 13.4338007 -8.74332714 0.969318986 # C3
525 84 2 0.0 14.2666016 -7.52847624 1.43977904 # C4
526 84 2 0.0 13.7827539 -6.16295815 0.919632018 # C5
527 84 2 0.0 14.5898132 -4.96457815 1.44584203 # C6
528 84 1 0.0 16.0244942 -4.88009691 0.908155978 # C7
529 85 1 0.0 -13.9768333 23.1726093 11.7545691 # C1
530 85 2 0.0 -14.9660749 23.7512207 12.7728300 # C2
531 85 2 0.0 -16.3903446 23.1663685 12.7352114 # C3
532 85 2 0.0 -17.2005196 23.4398937 11.4469748 # C4
533 85 2 0.0 -17.1265717 22.3325596 10.3803711 # C5
534 85 2 0.0 -17.9850712 22.5989189 9.13282013 # C6
535 85 1 0.0 -17.4843483 23.7511311 8.25177670 # C7
536 86 1 0.0 6.26651812 -23.6598263 -4.21655083 # C1
537 86 2 0.0 5.62721491 -22.7839909 -3.13283205 # C2
538 86 2 0.0 4.11966419 -22.9952011 -2.89896798 # C3
539 86 2 0.0 3.19241905 -22.6164570 -4.07689905 # C4
540 86 2 0.0 2.82277608 -23.7773228 -5.01767206 # C5
541 86 2 0.0 1.85441804 -23.3906307 -6.14776421 # C6
542 86 1 0.0 2.45761395 -22.4632721 -7.21111584 # C7
543 87 1 0.0 9.71891117 18.0761566 19.5533886 # C1
544 87 2 0.0 8.69760990 18.8599644 20.3857574 # C2
545 87 2 0.0 8.21328545 20.1901340 19.7790565 # C3
546 87 2 0.0 9.28414536 21.2953854 19.6292782 # C4
547 87 2 0.0 9.97280598 21.3567333 18.2540398 # C5
548 87 2 0.0 10.9920158 22.4988213 18.1084270 # C6
549 87 1 0.0 12.2611876 22.3287258 18.9538975 # C7
550 88 1 0.0 -19.6455135 -6.63692379 -12.9696512 # C1
551 88 2 0.0 -19.3591061 -8.13180256 -12.7864771 # C2
552 88 2 0.0 -20.2144547 -8.85682487 -11.7306671 # C3
553 88 2 0.0 -20.0107937 -8.40292168 -10.2666836 # C4
554 88 2 0.0 -20.9942665 -7.32674980 -9.77278423 # C5
555 88 2 0.0 -20.8105030 -6.93225813 -8.29800797 # C6
556 88 1 0.0 -19.5161495 -6.16263723 -8.00324059 # C7
557 89 1 0.0 19.9103031 -18.5014896 3.22287893 # C1