LAMMPS data file via write_data, version 29 Sep 2021, timestep = 7000000

7010 atoms
3 atom types
6000 bonds
2 bond types
5000 angles
2 angle types
4000 dihedrals
2 dihedral types

0 61.6443294745196 xlo xhi
0 61.6443294745196 ylo yhi
0 61.6443294745196 zlo zhi

Masses

1 15.034
2 14.027
3 44.01

Pair Coeffs # lj/cut

1 0.175 3.905
2 0.118 3.905
3 0.4692 3.72

Bond Coeffs # harmonic

1 260 1.526
2 260 1.526

Angle Coeffs # harmonic

1 63 112.4
2 63 112.4

Dihedral Coeffs # opls

1 1.411 -0.271 3.145 0
2 1.411 -0.271 3.145 0

Atoms # full

3927 570 2 0 7.633439331750991 3.88085901465619 14.2669488609509 0 0 -1
3928 570 2 0 8.874296384953844 4.555418098578618 13.709312128830181 0 0 -1
948 144 1 0 17.887930085904305 15.292506220629052 0.17131875629111823 3 0 1
4671 676 2 0 6.69197713966559 5.401017674908882 5.3071341296469905 1 -1 -3
4670 676 2 0 6.157499571663557 4.3897104093145165 6.246333002976924 1 -1 -3
4669 676 2 0 6.618316793788716 2.9864247200316503 5.94364741016155 1 -1 -3
4668 676 2 0 5.9942417226411076 2.4817666779186505 4.600099765344727 1 -1 -3
5834 842 1 0 4.563954784980868 9.468239159753232 2.7955895487703657 2 -1 -1
3825 555 1 0 5.9976774315835275 9.439513355418072 14.217871305189801 -1 -1 -1
6296 908 1 0 15.191910783640767 12.593414328910589 11.999585881946043 -2 1 2
1018 154 1 0 8.10526608332103 9.09064638373334 10.031868833677668 0 1 0
3824 555 2 0 5.923649358406064 8.281023170793071 15.21445733220407 -1 -1 -1
1013 154 2 0 3.8243269829643887 12.551877606884986 7.150455349090053 0 1 0
706 110 2 0 7.310419937868461 14.36781362091898 3.951769023704394 -1 0 0
4089 593 2 0 1.7694341212361822 2.0858089314133346 11.743765451655603 0 1 0
4086 593 2 0 0.4175783440136568 4.420516584153941 14.710073041154697 0 1 0
4667 676 2 0 6.295691849306141 0.9808259134344514 4.397939312467009 1 -1 -3
3157 460 2 0 9.242415123814375 1.6104426352869363 8.066743352452667 1 0 1
4672 676 1 0 6.693623951913086 6.81191938808526 6.053286172020765 1 -1 -3
707 110 2 0 6.940733544333808 13.155845669564416 3.1571431560623386 -1 0 0
1017 154 2 0 7.691779639008007 10.427843139082514 9.559347649599172 0 1 0
420 69 2 0 6.340278458194058 14.48890465026339 11.713729847938868 -2 1 0
705 110 2 0 7.132355285307829 14.144747098930539 5.436379652762855 -1 0 0
5832 842 2 0 4.0671166508061285 8.065445446260952 0.8020847134412852 2 -1 -1
3412 496 1 0 4.438061171593615 5.002278876550566 9.69379733309929 1 1 -1
3411 496 2 0 5.275664787881044 5.223472127325569 10.959818643531609 1 1 -1
3410 496 2 0 4.515369794354005 6.236285867888155 11.841214970796088 1 1 -1
6291 908 2 0 18.086218558801413 7.786758550188451 13.348071577500926 -2 1 2
3409 496 2 0 4.302675508154403 7.627220109723371 11.183388584277973 1 1 -1
3406 496 1 0 1.3302708688601192 10.152514701779728 10.970705127511074 1 1 -1
1016 154 2 0 6.377972705600655 10.32481884295577 8.858788225130658 0 1 0
4938 714 1 0 11.73298770881228 12.33450369622701 0.5565357067488176 1 3 -2
4632 671 2 0 0.3035090931046902 11.033797726946455 2.1366617843678277 0 1 1
6003 867 1 0 2.4906264654572103 8.284344205499094 7.188692344196028 0 2 -2
5760 832 2 0 9.303122113889566 3.1659358203446173 0.8390441747363008 0 0 -1
1012 154 1 0 2.3838834725110587 12.450254708509846 6.834285024696 0 1 0
5833 842 2 0 5.07476322959763 8.282883561875146 1.945558113514876 2 -1 -1
3408 496 2 0 3.090541449143533 8.394305439124334 11.740061271182844 1 1 -1
5508 796 2 0 13.60174878814435 2.988127304659688 12.093550453535643 0 2 -1
538 86 2 0 12.27335229270064 14.526701819029716 14.925380774222672 0 -1 -2
5399 780 2 0 15.269294486229727 14.466065874875957 3.0926799965535214 2 1 0
6007 867 2 0 2.2316597365119537 4.762462257970833 4.0694142705226035 0 2 -2
708 110 2 0 6.989107128633707 13.408631914993956 1.6891037092915755 -1 0 0
1015 154 2 0 5.950132038296593 11.624848150538488 8.166022009318576 0 1 0
6005 867 2 0 1.4719175220477232 6.153782914314564 6.227739550438515 0 2 -2
5888 850 2 0 19.468737637394394 11.041767844430876 7.367568574047147 -1 2 -1
5761 832 2 0 10.071925898441163 1.862096340541072 0.7791168846608052 0 0 -1
3929 570 2 0 9.176029623898087 4.316733256855226 12.271721520411383 0 0 -1
421 69 2 0 6.015119028764096 12.99859659953988 11.862380509404609 -2 1 0
3407 496 2 0 2.724453770610857 9.511566828728748 10.823301429512231 1 1 -1
3392 494 1 0 9.186309737870795 8.258900532848573 3.0268796315667053 1 -1 1
3393 494 2 0 9.420065725030556 8.811590335193221 1.6743403822365488 1 -1 1
704 110 1 0 7.500234906195757 15.301912439644521 6.391827212246015 -1 0 0
2674 391 2 0 12.54387258227999 8.134173919144382 15.338190736062097 -1 -1 -1
3930 570 1 0 10.424879815957494 5.072979997016216 11.85855996555279 0 0 -1
1014 154 2 0 4.470049079092625 11.348962765194832 7.717176055170664 0 1 0
4633 671 2 0 1.0204630774021153 10.829589552418422 0.8302609107389102 0 1 1
4088 593 2 0 0.6680710422445963 2.7266766326194882 12.69807441022566 0 1 0
6006 867 2 0 1.128697936297358 5.175029119349524 5.044980016633864 0 2 -2
5094 737 2 0 18.903617235376327 14.919717730710996 6.010682040405317 1 2 1
422 69 2 0 4.816422303498138 12.664149178028394 12.72865828512294 -2 1 0
423 69 1 0 3.6115029402848426 13.573297287384122 12.319807864793736 -2 1 0
4666 676 1 0 5.8024151767455905 0.3772677011391041 3.070348836314009 1 -1 -3
4087 593 2 0 1.2809420138144445 3.433980743543788 13.948939795038777 0 1 0
6009 867 1 0 2.8365383913374256 3.0385250956272563 2.477937245959414 0 2 -2
6008 867 2 0 1.6563029591660048 4.015774963463447 2.9267768555708984 0 2 -2
2978 434 1 0 20.303649282026985 4.379593787004348 11.848224411194682 -3 0 1
3160 460 1 0 6.880797756960032 0.9428544759150521 9.441405676390675 1 0 1
5037 729 1 0 19.421579780447143 0.718896803449868 7.365443810897232 -1 0 2
709 110 2 0 6.726377818079505 12.11979574086047 0.9249305265742409 -1 0 0
4090 593 2 0 1.178266060499507 1.894860163962015 10.349496660109413 0 1 0
3158 460 2 0 9.228841974128633 0.7565775072194247 9.265704921912388 1 0 1
3398 494 1 0 14.001699110233258 4.61140167492588 1.1296504046552203 1 -1 1
419 69 2 0 7.728727925652631 14.54240476341881 11.143148419202262 -2 1 0
1725 255 1 0 2.840428437149396 14.797451462442355 0.9701142347104272 0 -1 0
4648 673 2 0 16.739102551849825 6.051349793129608 6.274893289540182 0 -1 0
6004 867 2 0 2.262613551578913 7.430137219041672 5.911062110371901 0 2 -2
5758 832 1 0 6.913568650156654 4.234429903860595 0.7880774999733124 0 0 -1
5759 832 2 0 7.72671860786368 2.959591007305965 0.9184610467635219 0 0 -1
5398 780 2 0 14.003978775270117 15.389298504899031 3.0065047250485866 2 1 0
4091 593 1 0 2.243464052693454 1.6912950206453174 9.29227140306781 0 1 0
879 135 1 0 10.879180392125837 10.722464079938055 5.246809887270459 1 1 3
3156 460 2 0 10.466804185835569 2.532874937233288 7.9216448315963754 1 0 1
4631 671 1 0 1.2197714840381404 11.334899596331903 3.3028998826460447 0 1 1
3394 494 2 0 10.884896518981378 8.461218027425234 1.224603039990961 1 -1 1
2671 391 1 0 11.587982762690292 9.158002365502254 11.783920965187464 -1 -1 -1
2672 391 2 0 11.418448839879288 8.478982396553484 13.144635655483336 -1 -1 -1
3155 460 2 0 10.3423596178504 3.5551059346146867 6.84973565659093 1 0 1
3395 494 2 0 11.165479681735304 6.999680864903208 1.604346250910602 1 -1 1
1094 165 2 0 17.77247805966771 12.482042471788864 15.015758939865556 0 0 0
6665 961 2 0 17.753298653417726 8.50438420981745 0.4940939514642527 1 -1 0
2528 370 2 0 18.253676484270517 0.7519901035476796 12.750345629893538 0 0 -1
537 86 2 0 11.427102170323423 14.271106651195677 13.681926746882368 0 -1 -2
5400 780 1 0 15.207958973135963 13.239828390449 2.1559178211108208 2 1 0
5889 850 2 0 18.139760217401637 10.357971327770242 7.182804172886808 -1 2 -1
6290 908 1 0 18.071040713152243 6.6172153337603445 14.29204911509807 -2 1 2
880 135 2 0 11.626385471701058 11.898700084391276 4.681129093503033 1 1 3
6663 961 2 0 17.826394112766266 6.273077966579499 1.615248606898761 1 -1 0
2713 397 1 0 16.258975008564708 14.832590284915248 9.424547659451152 2 -1 -1
3396 494 2 0 12.529898913610992 6.645270607529438 1.2958294479860089 1 -1 1
3397 494 2 0 12.710749337250318 5.230912002165725 1.7217001745839855 1 -1 1
1723 255 2 0 3.0147103372429487 15.17577205820453 3.538745649820345 0 -1 0
2673 391 2 0 12.271564386698063 9.080397508691131 14.255313921278841 -1 -1 -1
6661 961 1 0 17.85385797163944 3.8453513394380154 2.3736649783371204 1 -1 0
881 135 2 0 12.847324680097215 12.244668925233134 5.480575058286648 1 1 3
1090 165 2 0 19.96678534480568 14.638906362710248 11.530051947125877 0 0 0
5041 729 2 0 15.239397247254294 0.492206973444551 6.033979382744983 -1 0 2
2328 342 1 0 0.28399846313440363 0.9457822119638317 5.39074923976597 1 0 1
6293 908 2 0 16.52345158038584 8.9400324144908 11.595934656811064 -2 1 2
883 135 2 0 11.665325032605102 13.765635769239987 7.0990801598359345 1 1 3
5043 729 1 0 14.155859988244503 1.914746639782623 4.217943815385374 -1 0 2
884 135 2 0 11.101325082030524 13.904151046024275 8.506917852845655 1 1 3
5510 796 2 0 12.66576837785883 3.4265721864539405 14.496268376613923 0 2 -1
5890 850 1 0 17.49512812683686 10.944569828745914 6.01711314730329 -1 2 -1
5506 796 1 0 15.016988168769657 4.736815846430123 10.854056835810512 0 2 -1
5042 729 2 0 15.404567639918323 1.6553941912658052 5.016098623903313 -1 0 2
6294 908 2 0 15.733860369166631 10.134729076102015 12.140378202192538 -2 1 2
1092 165 2 0 18.881149364430478 12.589250995092023 12.529309551067694 0 0 0
6662 961 2 0 18.439005700178875 5.274969875917448 2.600237063089522 1 -1 0
1091 165 2 0 18.967767997818818 13.493218318622175 11.356649877262965 0 0 0
882 135 2 0 12.482938540845913 12.522833033741433 6.889768041169529 1 1 3
536 86 1 0 10.950667881218953 12.874393050324736 13.620250204523673 0 -1 -2
885 135 1 0 11.977796801424994 13.161749390351734 9.519708548378073 1 1 3
5887 850 2 0 20.09734183068614 10.611340559868369 8.666572171450031 -1 2 -1
4649 673 2 0 15.399407012283163 6.710459875975191 6.293363454883535 0 -1 0
4651 673 1 0 13.142216737849967 6.591244204581673 5.407019601120908 0 -1 0
3154 460 1 0 10.383663210150923 2.8891354323849088 5.475969833592785 1 0 1
4647 673 2 0 17.67662638850681 6.6804086758374694 7.195776063482003 0 -1 0
6292 908 2 0 16.738103849476058 7.817151679546259 12.574949094971286 -2 1 2
6664 961 2 0 18.449472198388964 7.593930287324389 1.4881543567198854 1 -1 0
2329 342 2 0 1.6126455625309661 0.40226174601652215 4.9631463065708115 1 0 1
6295 908 2 0 15.422809598129648 11.3195576894103 11.2149738218258 -2 1 2
1093 165 2 0 18.327326797328528 13.377803709130347 13.851643177618387 0 0 0
5509 796 2 0 13.147508167112045 2.4022352435100096 13.434040686929132 0 2 -1
4645 673 1 0 20.12387848975271 6.435888794293224 7.999652271600256 0 -1 0
5507 796 2 0 14.609296062929301 4.189591538555274 12.240528526938515 0 2 -1
6666 961 2 0 16.397335132701738 8.923138015753013 0.9279043573947929 1 -1 0
5040 729 2 0 16.52222725636105 0.3038983000205539 6.859332683429182 -1 0 2
4646 673 2 0 19.015119061070923 6.0659612861014045 6.98128161052828 0 -1 0
4650 673 2 0 14.488174922436219 5.803615970256655 5.578640676612956 0 -1 0
2529 370 2 0 16.98368599003206 0.15198004569946733 13.210353838178595 0 0 -1
1095 165 1 0 18.651767608825523 11.30602292337156 15.377024814723164 0 0 0
14 11 2 0 8.22641026931235 15.32124691613818 15.155884076150949 -1 1 0
5831 842 2 0 4.162245501387577 6.776699678263212 0.0005038847568528126 2 -1 -1
1354 202 1 0 0.047157373181887625 8.348242583665668 19.13330901357891 2 -1 2
2292 336 1 0 4.116203598618515 4.3820240041618845 24.175222785656626 0 -1 0
253 45 2 0 2.212592608357839 12.697100120009392 29.266090530463195 -1 -2 2
1284 192 1 0 1.6670448228281283 7.183267053277563 25.455947453696194 0 0 0
1283 192 2 0 1.7095389808678412 7.901649903050167 24.097166239409475 0 0 0
1351 202 2 0 2.4553804254635017 11.004040645133522 20.487296506560526 2 -1 2
1350 202 2 0 3.785968524469582 11.47917797197744 19.935497884660936 2 -1 2
1471 219 2 0 15.897584924758105 6.478480949989669 28.99649179218341 2 -1 -1
1989 293 2 0 1.2847696428725905 1.0001970529891218 24.215583800831492 3 2 1
1282 192 2 0 3.1097302125782216 8.378323581229221 23.68980859912711 0 0 0
1281 192 2 0 3.538875281637972 9.412014064534812 24.725057800591806 0 0 0
254 45 2 0 2.328804358440244 12.060377738623131 30.64641003895949 -1 -2 2
5511 796 2 0 12.212339059200565 2.779957746351446 15.846058340032174 0 2 -1
252 45 2 0 3.475326195687361 13.399540012209423 28.75337474392047 -1 -2 2
1279 192 2 0 4.7949760563960195 11.274154694134745 25.40736377993542 0 0 0
1280 192 2 0 4.779471846517023 10.064374153830508 24.468316529497248 0 0 0
4132 599 2 0 17.969487095601227 15.27662701852664 22.527721752204286 1 2 1
4085 593 1 0 1.2023994177959023 5.008529424592264 15.880987155929027 0 1 0
1278 192 1 0 6.143621751081827 12.044123793120367 25.58993752783285 0 0 0
5512 796 1 0 13.223484108069465 1.82696856611439 16.47391336801867 0 2 -1
1349 202 2 0 4.28327339068905 12.754945424355407 20.439724128696778 2 -1 2
3819 555 1 0 2.71371518387478 6.105664268916749 20.209233498588617 -1 -1 -1
5448 787 2 0 5.068512071035767 8.45673175188508 28.005223145735354 -1 -1 -1
6870 990 1 0 2.583781294180916 1.468373179820365 18.809404497016754 -1 0 1
4391 636 2 0 0.3252806791670172 5.533268127419015 28.872598622381577 2 2 0
3820 555 2 0 3.7159222482434475 5.9782878381294084 19.05333641844132 -1 -1 -1
2121 312 2 0 12.663794642768796 14.056950282921498 29.827869078851627 0 0 2
2288 336 2 0 5.8210628036016745 1.7531175175324374 21.013068000940933 0 -1 0
2744 401 2 0 19.245766745653285 3.571017810609063 15.881976762132936 -2 1 0
1352 202 2 0 1.804983106187934 9.9972049341393 19.64464482712942 2 -1 2
1470 219 2 0 17.32801401602537 6.021513820276805 28.985085537303707 2 -1 -1
5841 843 1 0 10.671701306663765 11.3841854350468 20.563963633316487 0 -1 0
5638 814 1 0 14.376682605268808 2.1698382537112493 27.73427746614364 -1 1 -1
2289 336 2 0 5.526771246808453 3.1263961155970863 21.706114400589836 0 -1 0
1990 293 2 0 0.6852580620694163 0.37174150103130377 25.432636844137203 3 2 1
1991 293 1 0 0.6134082268379146 1.3750620055970724 26.542100460600153 3 2 1
2291 336 2 0 5.649571669314457 4.25902561625428 24.174075960329674 0 -1 0
2290 336 2 0 6.033577347593722 3.0852086891564814 23.204059364063113 0 -1 0
6868 990 2 0 0.22522459206741915 2.1001239120572834 19.28951407200775 -1 0 1
1353 202 2 0 0.47889448781433397 9.497422436596551 20.03070386069803 2 -1 2
3821 555 2 0 3.7981697925861946 7.38328101150858 18.306308985153397 -1 -1 -1
11 11 1 0 7.0465172224499835 12.253818048132349 17.07115263505919 -1 1 0
5449 787 1 0 5.519558993982961 9.711326511091693 28.817807136904648 -1 -1 -1
5445 787 2 0 5.539470628697295 4.7030975947566676 28.747625948699156 -1 -1 -1
5637 814 2 0 13.879618676348011 2.740121045976131 26.386469612368217 -1 1 -1
1626 241 2 0 7.908705187085998 7.772504252256664 20.749949758859703 1 -2 -2
5443 787 1 0 5.387626588927669 2.1771952122143676 28.739364206336894 -1 -1 -1
5446 787 2 0 5.057950267545814 5.923637646780796 28.00601958789227 -1 -1 -1
636 100 2 0 20.354787290432466 14.563352619198445 26.60068148595987 -1 2 -1
5155 745 1 0 8.73840100639697 4.420638995320052 19.261379101678276 1 1 0
1625 241 2 0 8.930490456406142 8.365083336242494 21.701816337773128 1 -2 -2
1627 241 1 0 8.347655757302395 8.082872175311026 19.35290830766426 1 -2 -2
6869 990 2 0 1.6631713137044668 2.4990352916697 19.56522769174824 -1 0 1
4392 636 1 0 0.9419401362829893 4.504564937528223 29.887600439839595 2 2 0
13 11 2 0 8.046587004109927 14.386604396951574 16.323221529631436 -1 1 0
5447 787 2 0 5.786155645920394 7.110494479403463 28.43202603966929 -1 -1 -1
5444 787 2 0 4.9779712331978905 3.4497539120474374 28.063972170864858 -1 -1 -1
3666 533 2 0 0.37923418094526073 11.887726895670907 15.882910942917329 0 0 0
3665 533 1 0 1.6715384385807872 12.514661951137573 16.29973771783642 0 0 0
2120 312 2 0 11.148473133795038 13.969462923097907 29.638751243734426 0 0 2
1348 202 1 0 5.658289546003136 13.289153174053151 20.07874511995572 2 -1 2
274 48 2 0 9.218568856509938 2.2000021108082155 24.684020392445174 1 2 1
2675 391 2 0 13.693891147363052 8.624223300296608 16.263823491340126 -1 -1 -1
1624 241 2 0 8.733352910330925 7.800759565706951 23.17243816646816 1 -2 -2
4364 632 1 0 0.40138384876681754 13.959616465489226 24.540080412575275 -2 1 -2
4363 632 2 0 0.2883577161863903 12.453650909638386 24.301949257388205 -2 1 -2
12 11 2 0 7.312587564032786 13.101909853230895 15.855214002159645 -1 1 0
275 48 2 0 9.61984151347019 1.795412437282154 23.229101153915177 1 2 1
2743 401 2 0 20.537931271427645 4.3043175863046885 16.001985173830835 -2 1 0
5152 745 2 0 8.764162221236091 1.1977204734190305 18.319466911309547 1 1 0
2676 391 2 0 14.236603235006026 7.567707747561577 17.234008685082806 -1 -1 -1
273 48 2 0 9.629784680103304 3.6369320731522925 25.013415836103892 1 2 1
2287 336 2 0 5.066642862172893 0.6196267422407903 21.782085732875114 0 -1 0
251 45 2 0 3.302487440902607 14.09362193619007 27.360012934790337 -1 -2 2
3822 555 2 0 4.813165362262125 7.3785685275459585 17.19925097128611 -1 -1 -1
6499 937 1 0 9.351171229274215 9.845312749182124 29.819461782989414 1 0 -1
5636 814 2 0 14.255559358545025 1.7624303905941665 25.293409491561228 -1 1 -1
3165 461 2 0 20.53019735787271 14.634685398493385 16.858234774459095 2 0 1
2399 352 2 0 19.113079322946447 1.2158805754617958 29.947138331897392 1 -2 0
5840 843 2 0 11.195063904969029 12.677429730601812 20.12520494454847 0 -1 0
5633 814 2 0 13.390569856642802 0.8923908023118163 21.700213129200026 -1 1 -1
4130 599 2 0 16.032153130192768 14.06781262283493 23.71657705007624 1 2 1
1623 241 2 0 9.796757685597061 8.350865510529008 24.15289320872673 1 -2 -2
4127 599 1 0 13.538723713917491 11.962622835594724 23.99920857919136 1 2 1
5635 814 2 0 13.490478640189787 1.7961443362026195 24.059729626623092 -1 1 -1
1081 163 1 0 10.953437288797806 14.861882373165386 25.293914669922476 2 1 -1
3340 486 2 0 14.061065938990001 6.19252988138038 21.941460073227137 1 -1 1
2747 401 1 0 17.761007780146016 0.4571904775140574 17.58241530032373 -2 1 0
2300 338 1 0 20.377694060778055 12.332197752480607 30.60157358155793 -2 -1 -1
2986 436 1 0 19.01853540289091 9.943834114845101 27.069221127417503 -1 -1 0
5839 843 2 0 12.51053159683413 12.400261087595199 19.36230785128223 0 -1 0
5153 745 2 0 9.72221733633641 1.963869287021791 19.171868297638973 1 1 0
1622 241 2 0 9.457981695790252 9.604820586226616 25.028204689982815 1 -2 -2
3341 486 2 0 13.25959061920842 5.0388859689124175 22.524013321633788 1 -1 1
4131 599 2 0 17.53093573542803 14.289346574427709 23.538049514801795 1 2 1
2400 352 2 0 20.027151809916347 2.4526848831956003 29.81297990830593 1 -2 0
3337 486 2 0 16.815152260850578 5.802581790572556 24.67809165882001 1 -1 1
1472 219 2 0 15.36774846780915 7.0546915583131256 27.654022774654948 2 -1 -1
2991 436 2 0 16.68576534019684 10.11583103718739 22.00094150646735 -1 -1 0
3336 486 1 0 18.063395962455424 4.946551134501199 24.93243326848239 1 -1 1
4129 599 2 0 15.80724558605855 13.03069670436572 24.815681073647447 1 2 1
3342 486 1 0 12.145693748661545 4.7449657916989505 21.495866722468303 1 -1 1
3925 570 2 0 6.3988946925207095 3.552631602457536 16.401945917786243 0 0 -1
2990 436 2 0 18.15312420675381 9.700073398408847 22.233043609019663 -1 -1 0
2122 312 2 0 13.404675757269567 14.271416947295037 28.531306514006577 0 0 2
2992 436 1 0 16.350266978803408 10.720117418666819 20.66327473543905 -1 -1 0
5837 843 2 0 14.356418476726702 13.39229887140661 17.913141792161575 0 -1 0
5838 843 2 0 13.200066994947608 13.700211693382785 18.832468506551997 0 -1 0
3823 555 2 0 4.864267495189346 8.530268999232087 16.22756302210176 -1 -1 -1
2302 338 2 0 18.067646581788125 11.27720924045549 30.421463242111066 -2 -1 -1
3339 486 2 0 15.015029505492118 6.6346999591086195 23.071500884377997 1 -1 1
272 48 2 0 9.49416558165796 4.0138666592616215 26.448243863854938 1 2 1
450 73 2 0 18.977939721656604 8.093655682447139 18.457886974925433 0 -1 1
271 48 2 0 9.985448544400121 5.392306915907576 26.83584447317404 1 2 1
4128 599 2 0 14.282763128001106 12.80516283243668 25.022130597889614 1 2 1
270 48 1 0 10.013977253283745 5.602541800076427 28.39745407666717 1 2 1
5634 814 2 0 14.001291569117761 0.7162291527681137 23.04814585984392 -1 1 -1
5836 843 2 0 15.393459151898211 14.538256626278363 18.037371111028413 0 -1 0
6577 949 1 0 19.858415981823768 0.231210489802119 23.376982000996076 -1 2 0
2123 312 2 0 14.746805361734946 14.850143899881632 28.876829892208946 0 0 2
2677 391 1 0 13.193599835641441 7.06411876762542 18.186270438962445 -1 -1 -1
446 73 2 0 16.242683390714433 4.521524419786999 18.677490854274236 0 -1 1
5835 843 1 0 16.136301364733264 14.265070418192568 19.34601128011371 0 -1 0
5154 745 2 0 9.799090827774009 3.41405503345554 18.710028149778637 1 1 0
445 73 1 0 15.746961845096447 3.210746525890756 19.178047535253434 0 -1 1
2987 436 2 0 19.009506531728817 9.093694944410885 25.82959585801096 -1 -1 0
448 73 2 0 17.659105254346596 6.389189300846734 19.742110208421515 0 -1 1
2988 436 2 0 17.908743103171304 9.48032428006355 24.805766408339903 -1 -1 0
2989 436 2 0 18.34130316079416 8.857668358407317 23.445049523043085 -1 -1 0
2746 401 2 0 17.860901702722156 1.6505481934570103 16.635665772768473 -2 1 0
449 73 2 0 18.51790316178314 6.691367746776396 18.539530974557497 0 -1 1
451 73 1 0 19.917269694148782 8.428435777375663 17.360087647347903 0 -1 1
276 48 1 0 9.22931072479657 0.4465219352920226 22.789867310594047 1 2 1
447 73 2 0 17.139821730162396 4.968035012704076 19.826109239977978 0 -1 1
1473 219 1 0 13.933234931744522 7.458028012850285 27.939943793024568 2 -1 -1
3338 486 2 0 16.063052986124948 5.601898200009758 23.364833776917568 1 -1 1
1621 241 1 0 10.576597554861975 9.831685523635104 26.011985029961032 1 -2 -2
2745 401 2 0 19.11070355867561 2.4524893810226893 16.9307856475766 -2 1 0
1988 293 2 0 1.0468108107932883 0.2856898360019926 22.861535259569653 3 2 1
3924 570 1 0 5.0502642826475626 3.8777065053820143 15.817216396963468 0 0 -1
1469 219 2 0 17.782844664737016 5.597345470923837 30.41763582400226 2 -1 -1
3926 570 2 0 7.465207040115134 4.380773678970899 15.691821049406743 0 0 -1
2303 338 2 0 16.65365545317151 11.242131610598506 30.768352962711155 -2 -1 -1
3581 521 1 0 4.861761632443983 2.970566621370466 41.649296926691456 0 -1 2
6574 948 2 0 2.6058159722778984 5.1929547101036615 36.37191802813034 0 1 0
4060 589 2 0 4.188844710144484 9.217152449353927 36.0471364991027 -1 0 2
4059 589 2 0 3.5268148824800654 8.76314983863004 34.75257042792137 -1 0 2
1255 188 2 0 9.485196897264402 6.691639213912848 42.689704473592975 1 0 1
3583 521 2 0 4.504232696744882 1.134568839738181 43.33969801337637 0 -1 2
4057 589 1 0 3.7401160639757602 8.20091009175777 32.30233739378454 -1 0 2
4061 589 2 0 5.149433817046656 8.200074556286186 36.569244204181 -1 0 2
4058 589 2 0 4.471670508209607 8.644705486056328 33.56794159902154 -1 0 2
674 105 2 0 6.516095692355642 3.2300183461875513 45.85190726697106 -1 -1 -1
4975 720 2 0 6.982543275836964 12.410203383273355 37.530879662479165 0 0 -1
649 102 2 0 0.6506006110454741 11.590991589744949 40.384596667391186 2 -1 1
4062 589 2 0 5.688831890645295 8.544121926226076 37.90170780050692 -1 0 2
4063 589 1 0 6.483312186892914 7.37826223845969 38.50699666291528 -1 0 2
4974 720 1 0 6.32471500947121 12.086035467756535 38.87503074580786 0 0 -1
4976 720 2 0 6.2655290088496844 13.577191276587055 37.006713850743715 0 0 -1
773 119 1 0 9.588529317038569 0.290128604110811 43.05306626814441 3 -1 -2
3073 448 2 0 4.459139315862925 15.015752990201593 32.29427836974484 3 1 0
4529 656 2 0 0.16802473794134293 2.6774280193090836 45.34694284937681 0 3 1
1389 207 1 0 14.637246054329767 5.417282132499848 41.24278169895792 -1 1 1
675 105 1 0 7.050372997085805 4.14784947534573 44.7093935870401 -1 -1 -1
487 79 1 0 0.48712207601553464 10.844437655902546 35.79932248802827 2 1 1
5386 778 1 0 0.1416018319289976 3.09167159332504 37.880977762854464 3 -2 1
6724 970 1 0 3.110529965519663 14.915562032681272 39.15658756516228 0 0 -1
955 145 1 0 3.143988151033032 13.475045938656299 46.040675301609916 2 1 0
5348 773 2 0 14.834920176178791 14.129777063974348 35.77965502923195 0 0 0
2708 396 2 0 6.465470478986431 10.561851091224094 44.412421279543175 0 -1 -2
2709 396 2 0 7.8550551013546634 10.49627742381538 43.756284880611645 0 -1 -2
648 102 1 0 1.2699346581546425 12.301085069715112 41.588192583740714 2 -1 1
6572 948 2 0 0.5897759682920125 6.047886751610079 35.17027089236292 0 1 0
2707 396 2 0 5.3553788070427 11.263099003315403 43.64914389861202 0 -1 -2
2706 396 1 0 4.9465690773391975 10.694193961884853 42.3048510194237 0 -1 -2
6575 948 2 0 3.9860512943811237 4.626729035931861 36.21447268924324 0 1 0
3582 521 2 0 4.846652643032712 1.4514522945052426 41.936840190375385 0 -1 2
6576 948 1 0 4.524469212215932 4.40077004671705 37.60185083801958 0 1 0
2710 396 2 0 9.034987677525544 10.231604139263466 44.746684300155415 0 -1 -2
1254 188 2 0 10.969363998514538 6.432741980823568 42.85244111341009 1 0 1
651 102 2 0 0.45315825459839754 9.379811813962908 39.37162986787716 2 -1 1
650 102 2 0 1.330929806190413 10.282281219549764 40.194293918399325 2 -1 1
2712 396 1 0 11.432724287652063 9.89269533958305 45.16812136904094 0 -1 -2
6170 890 1 0 10.3939045249918 9.705730088598692 34.65146664866612 0 2 0
4955 717 2 0 1.532351037051576 7.707433225309472 43.41259637271482 1 -1 -1
4034 585 2 0 19.548552328320934 11.156819918207907 37.2489171312947 0 -1 -1
6573 948 2 0 1.9123207425509359 5.379050669847336 35.0235286827584 0 1 0
1253 188 2 0 11.100244301692465 5.667259142087251 44.08115338458761 1 0 1
1256 188 1 0 9.203990196458255 7.488687331862855 41.42307752255397 1 0 1
772 119 2 0 8.884724638131855 1.0355608885451002 41.86354373426465 3 -1 -2
771 119 2 0 9.874430099006714 1.8604769323909454 41.00295153067542 3 -1 -2
6366 918 1 0 9.431552016619008 14.230479333574527 41.82342144214772 1 2 0
5345 773 1 0 15.737448318893517 13.770932974772576 38.70199467992058 0 0 0
652 102 2 0 1.109453062787497 8.045712498528545 39.24275770493727 2 -1 1
6365 918 2 0 9.419845360892843 14.209852517112742 40.28338066519253 1 2 0
6625 955 1 0 4.616293088641564 2.38246835755296 32.38591871947308 -1 0 -2
4978 720 2 0 8.482918835373109 14.388036211947524 36.06961775528967 0 0 -1
770 119 2 0 9.088287280558697 2.5950295758113997 39.9222884933621 3 -1 -2
6494 937 2 0 7.007716645057509 5.718698683251442 33.1997733417123 1 0 -1
6496 937 2 0 9.094315845873716 6.7009604097697455 32.03126591978777 1 0 -1
6571 948 2 0 0.00386044690446486 6.537853742646238 33.754480244845034 0 1 0
6019 869 2 0 15.634182440844048 11.339713401849414 45.64309513068085 -1 0 -2
1252 188 2 0 10.46439141411687 6.243566914031151 45.28069324480802 1 0 1
6495 937 2 0 8.126449189131977 5.535093056960787 32.22391566041126 1 0 -1
6622 955 2 0 7.512520800761346 0.8357727859268999 34.67197250585509 -1 0 -2
4530 656 2 0 1.6272747154482836 2.8952561276194757 45.460357252096586 0 3 1
5724 827 2 0 20.317691958839344 14.587518493415661 34.36143229977215 0 2 -1
3075 448 2 0 2.1314585002157127 14.67185681714851 33.34286645430657 3 1 0
4953 717 1 0 3.6503285348709045 6.452081689281477 43.606026789998765 1 -1 -1
6624 955 2 0 6.012072143242854 2.0346672587655488 33.06216974122413 -1 0 -2
6568 947 2 0 19.424669696950748 3.086352319827529 41.86221637698415 -1 0 -3
6168 890 2 0 10.143773179427392 11.149354043117032 36.64584496882181 0 2 0
769 119 2 0 9.946411613172206 3.677390995816035 39.195045919924326 3 -1 -2
6493 937 1 0 7.637609322347161 6.036072185420018 34.55917167786228 1 0 -1
6569 947 1 0 17.959870134507714 2.811740897021713 41.630276977686975 -1 0 -3
653 102 2 0 0.17254341864722278 7.1416620061373175 38.447818004798705 2 -1 1
4776 691 2 0 14.560003308366138 15.162677272085713 41.897343718949585 2 -1 0
4954 717 2 0 3.053917861734446 7.854202294534406 43.391459956525196 1 -1 -1
235 43 1 0 17.677580656874472 2.0289076826300345 35.279807247133924 -2 2 1
6623 955 2 0 6.24439248204725 0.7617746359981359 33.79773545332534 -1 0 -2
6022 869 2 0 16.722919194254594 10.589585949248745 41.93568065370391 -1 0 -2
5723 827 1 0 18.8169851363476 14.73884482637732 34.482716599991164 0 2 -1
2031 299 2 0 15.865949037728674 2.418220644077193 45.64194650131552 1 2 -1
6498 937 2 0 9.724823725259768 8.92731827529697 31.004265715752837 1 0 -1
6021 869 2 0 16.459375823101745 11.337056597658739 43.23219645121733 -1 0 -2
1383 207 1 0 14.515569519031018 8.141682205365605 35.3859669462835 -1 1 1
4956 717 2 0 0.9201173280362972 6.864891203108357 44.466869040939365 1 -1 -1
2032 299 2 0 17.22508172558409 1.7558355890098305 46.01295273591969 1 2 -1
4035 585 1 0 19.19823568190512 10.877350266842463 35.76006944368587 0 -1 -1
6020 869 2 0 16.05846938386666 10.470271331394251 44.43105243296867 -1 0 -2
1886 278 1 0 18.267351362795814 14.197038419167892 42.06163824086761 -2 1 -1
124 27 2 0 14.348590889573204 1.8481196877891055 38.071919317699624 -1 1 0
2029 299 2 0 16.84801567216683 4.7893357864585475 46.061133744164664 1 2 -1
5312 768 2 0 11.976507267811977 0.3392708701807728 34.050622862665946 -1 2 -1
6169 890 2 0 11.120297797697134 10.450696554664486 35.700664249543536 0 2 0
1468 219 2 0 17.121372282098207 6.541938207597197 31.467767416705016 2 -1 -1
2711 396 2 0 10.40994713421453 10.038013394110816 44.06971493470718 0 -1 -2
2306 338 1 0 14.229987968655118 9.884724105116714 31.56180472049366 -2 -1 -1
6567 947 2 0 19.871618934782173 2.971907569993564 43.37647739604548 -1 0 -3
127 27 2 0 14.507311774412061 0.8248515127997017 41.73465255484365 -1 1 0
2301 338 2 0 19.062018269829046 12.009701749288341 31.35066331024066 -2 -1 -1
255 45 1 0 0.9880731838797185 11.731314826062324 31.14585276047519 -1 -2 2
5347 773 2 0 14.739373789386491 12.828830653939402 36.55358209386776 0 0 0
2119 312 2 0 10.314553504638509 14.521700916412795 30.869561243346112 0 0 2
2030 299 2 0 16.049606113262733 3.8251198427991406 45.07680779404686 1 2 -1
123 27 1 0 13.663599949195088 3.1496581288102483 37.43863671838616 -1 1 0
767 119 1 0 10.075234230750478 5.519322331620362 37.45834982842608 3 -1 -2