LAMMPS data file
# Generated by Playmol on 13-Mar-2025 at 16:17:13

4 atom types
5 bond types
6 angle types
6 dihedral types
1 improper types

12100 atoms
10200 bonds
8400 angles
6500 dihedrals
100 impropers

-45.0000000 45.0000000 xlo xhi
-45.0000000 45.0000000 ylo yhi
-45.0000000 45.0000000 zlo zhi

Masses

1 12.011 # C
2 13.019 # CH
3 15.034 # CH3
4 14.027 # CH2

# Elements: C? N? O? N?

Pair Coeffs # lj/cut

1 0.0700 3.5500 # C
2 0.1100 3.7500 # CH
3 0.1750 3.9050 # CH3
4 0.1180 3.9050 # CH2

Bond Coeffs # harmonic

1 469.0 1.400 # CH C
2 469.0 1.400 # CH CH
3 317.0 1.510 # CH3 C
4 260.0 1.526 # CH3 CH2
5 260.0 1.526 # CH2 CH2

Angle Coeffs # harmonic

1 85.0 120.0 # C CH CH
2 85.0 120.0 # CH C CH
3 85.0 120.0 # CH CH CH
4 85.0 120.0 # CH C CH3
5 63.0 112.4 # CH2 CH2 CH2
6 63.0 112.4 # CH3 CH2 CH2

Dihedral Coeffs # opls

1 1.411 -0.271 3.145 0.00 # CH3 CH2 CH2 CH2
2 1.411 -0.271 3.145 0.00 # CH2 CH2 CH2 CH2
3 0.000 7.25 0.000 0.00 # CH CH CH CH
4 0.000 7.25 0.000 0.00 # CH CH CH C
5 0.000 7.25 0.000 0.00 # CH CH C CH
6 0.000 7.25 0.000 0.00 # CH CH C CH3

Improper Coeffs # harmonic

1 2.2 0 # C CH3 CH CH

Atoms

1 1 3 0.0 1.20990896 -41.9330597 -24.5727348 # C1H
2 1 4 0.0 2.25413299 -42.4505844 -23.5742512 # C2H
3 1 4 0.0 2.33849311 -41.6519547 -22.2615967 # C3H
4 1 4 0.0 2.93808007 -40.2451630 -22.4115334 # C4H
5 1 4 0.0 2.91294003 -39.3989944 -21.1272316 # C5H
6 1 3 0.0 3.73446012 -39.9562263 -19.9540749 # C6H
7 2 3 0.0 34.6857719 9.71379280 36.9641266 # C1H
8 2 4 0.0 33.5267830 8.80890179 37.4035835 # C2H
9 2 4 0.0 32.1692123 9.14758587 36.7630463 # C3H
10 2 4 0.0 31.5456219 10.4631014 37.2545776 # C4H
11 2 4 0.0 30.2499943 10.8666039 36.5302849 # C5H
12 2 3 0.0 29.0725861 9.89248466 36.6930618 # C6H
13 3 3 0.0 -23.0423069 19.6645489 -28.5056190 # C1H
14 3 4 0.0 -23.9730396 18.6093674 -27.8928089 # C2H
15 3 4 0.0 -25.2774944 18.3723869 -28.6739769 # C3H
16 3 4 0.0 -26.2795696 19.5351677 -28.6044197 # C4H
17 3 4 0.0 -27.5307751 19.3544769 -29.4807205 # C5H
18 3 3 0.0 -28.4254169 18.1597595 -29.1147118 # C6H
19 4 3 0.0 -23.1069775 25.1019573 43.1068459 # C1H
20 4 4 0.0 -23.1612720 26.2181969 42.0550537 # C2H
21 4 4 0.0 -22.9968815 25.7396622 40.6017914 # C3H
22 4 4 0.0 -21.5830231 25.2515068 40.2500000 # C4H
23 4 4 0.0 -21.4438095 24.6598339 38.8369865 # C5H
24 4 3 0.0 -21.7247047 25.6350498 37.6829720 # C6H
25 5 3 0.0 4.86832285 -17.2405300 -26.0005741 # C1H
26 5 4 0.0 5.82768679 -16.9250984 -27.1561394 # C2H
27 5 4 0.0 7.20999002 -16.4081841 -26.7202187 # C3H
28 5 4 0.0 7.19947195 -14.9918098 -26.1245518 # C4H
29 5 4 0.0 8.55655956 -14.5183020 -25.5766754 # C5H
30 5 3 0.0 9.68324566 -14.4029694 -26.6154118 # C6H
31 6 3 0.0 39.1090393 9.45573330 -12.5913391 # C1H
32 6 4 0.0 38.8275414 10.8395329 -13.1922216 # C2H
33 6 4 0.0 38.4733925 10.8293753 -14.6897078 # C3H
34 6 4 0.0 39.6481590 10.4834929 -15.6177940 # C4H
35 6 4 0.0 39.2724266 10.3531113 -17.1036911 # C5H
36 6 3 0.0 38.7312965 11.6320562 -17.7618504 # C6H
37 7 3 0.0 9.34619904 25.9053135 5.73626184 # C1H
38 7 4 0.0 8.40771008 24.8263264 5.17927790 # C2H
39 7 4 0.0 6.91107178 25.1763592 5.25369310 # C3H
40 7 4 0.0 6.32987118 25.1808529 6.67609692 # C4H
41 7 4 0.0 4.86705017 25.6475525 6.76780987 # C5H
42 7 3 0.0 3.84701610 24.7701035 6.02530718 # C6H
43 8 3 0.0 -39.5912743 42.8659515 3.58197308 # C1H
44 8 4 0.0 -41.0886383 42.5313988 3.61624098 # C2H
45 8 4 0.0 -41.4826164 41.2686234 2.83000112 # C3H
46 8 4 0.0 -41.3818893 41.4136696 1.30361104 # C4H
47 8 4 0.0 -41.6571884 40.1197853 0.518661022 # C5H
48 8 3 0.0 -43.0720596 39.5410385 0.676405013 # C6H
49 9 3 0.0 25.1282196 27.5171642 0.647836983 # C1H
50 9 4 0.0 26.6174564 27.8869057 0.622027993 # C2H
51 9 4 0.0 26.9747715 29.1670895 1.39755404 # C3H
52 9 4 0.0 26.4722519 30.4650764 0.746592999 # C4H
53 9 4 0.0 26.7207031 31.7352695 1.57782495 # C5H
54 9 3 0.0 28.1967545 32.0762711 1.83606601 # C6H
55 10 3 0.0 -22.2053337 28.7628403 41.5767517 # C1H
56 10 4 0.0 -22.6871166 29.9719505 40.7636452 # C2H
57 10 4 0.0 -24.1641159 30.3448582 40.9813652 # C3H
58 10 4 0.0 -25.1662998 29.3406048 40.3913231 # C4H
59 10 4 0.0 -26.6398849 29.6449165 40.7107162 # C5H
60 10 3 0.0 -27.1752491 30.9726830 40.1520386 # C6H
61 11 3 0.0 30.7481670 0.466619015 -7.75031710 # C1H
62 11 4 0.0 31.8246765 -5.07129990E-02 -8.71400738 # C2H
63 11 4 0.0 33.1619682 -0.416575015 -8.04633427 # C3H
64 11 4 0.0 33.9662437 0.788053989 -7.53344011 # C4H
65 11 4 0.0 35.2435074 0.421254992 -6.75876379 # C5H
66 11 3 0.0 36.3102303 -0.335094005 -7.56606007 # C6H
67 12 3 0.0 -4.56524706 -2.48535991 -41.3840065 # C1H
68 12 4 0.0 -5.22444677 -3.86742997 -41.4866753 # C2H
69 12 4 0.0 -4.65194082 -4.92485380 -40.5264282 # C3H
70 12 4 0.0 -3.23078299 -5.39482594 -40.8735390 # C4H
71 12 4 0.0 -2.60837412 -6.35973597 -39.8500023 # C5H
72 12 3 0.0 -3.33889198 -7.70092201 -39.6789474 # C6H
73 13 3 0.0 -4.94666195 2.79683089 2.16598701 # C1H
74 13 4 0.0 -5.85437298 1.58640301 1.90882897 # C2H
75 13 4 0.0 -5.29044580 0.243740007 2.40605211 # C3H
76 13 4 0.0 -4.08977413 -0.277803987 1.60142195 # C4H
77 13 4 0.0 -3.44727111 -1.55577004 2.16715908 # C5H
78 13 3 0.0 -4.35627985 -2.79458189 2.19438791 # C6H
79 14 3 0.0 -16.9470921 -3.16028905 22.3036346 # C1H
80 14 4 0.0 -18.1822987 -2.52198291 22.9532776 # C2H
81 14 4 0.0 -19.5260773 -3.12516308 22.5078335 # C3H
82 14 4 0.0 -19.9178467 -2.80164599 21.0576954 # C4H
83 14 4 0.0 -21.1981449 -3.50089908 20.5698929 # C5H
84 14 3 0.0 -22.4834347 -3.12410808 21.3233871 # C6H
85 15 3 0.0 38.1477356 -25.2669144 -39.7490196 # C1H
86 15 4 0.0 37.9147224 -26.0000896 -38.4211006 # C2H
87 15 4 0.0 36.8819695 -25.3359718 -37.4935455 # C3H
88 15 4 0.0 37.3477707 -24.0111656 -36.8698692 # C4H
89 15 4 0.0 36.2764969 -23.2834339 -36.0399017 # C5H
90 15 3 0.0 35.7733498 -24.0420876 -34.8017616 # C6H
91 16 3 0.0 20.8553619 -35.2417297 -1.72640204 # C1H
92 16 4 0.0 21.4624691 -36.4499626 -1.00059402 # C2H
93 16 4 0.0 20.5046425 -37.1643982 -3.09870001E-02 # C3H
94 16 4 0.0 20.1696968 -36.3629951 1.23653495 # C4H
95 16 4 0.0 19.1199245 -37.0192871 2.14940190 # C5H
96 16 3 0.0 19.5212116 -38.3776474 2.74565911 # C6H
97 17 3 0.0 -36.7437286 18.4787712 -13.8939219 # C1H
98 17 4 0.0 -36.5508003 17.2246723 -13.0306606 # C2H
99 17 4 0.0 -35.8271637 16.0643978 -13.7364244 # C3H
100 17 4 0.0 -36.6498222 15.3796377 -14.8388691 # C4H
101 17 4 0.0 -35.8886795 14.3009377 -15.6282558 # C5H
102 17 3 0.0 -35.4164543 13.0917330 -14.8057461 # C6H
103 18 3 0.0 -8.77997780 25.0797939 -26.7572269 # C1H
104 18 4 0.0 -7.25693512 25.1624641 -26.9266682 # C2H
105 18 4 0.0 -6.44796610 24.5478725 -25.7708855 # C3H
106 18 4 0.0 -6.51038313 25.3441563 -24.4582233 # C4H
107 18 4 0.0 -5.80431318 24.6721096 -23.2683125 # C5H
108 18 3 0.0 -4.28949881 24.4692268 -23.4291553 # C6H
109 19 3 0.0 -20.0655022 -7.54360914 38.4874687 # C1H
110 19 4 0.0 -18.6533680 -8.03158855 38.1368179 # C2H
111 19 4 0.0 -17.5431576 -7.50315380 39.0621147 # C3H
112 19 4 0.0 -17.2431583 -6.00462818 38.9025269 # C4H
113 19 4 0.0 -16.2212734 -5.44636202 39.9075928 # C5H
114 19 3 0.0 -14.8108463 -6.05003214 39.8182793 # C6H
115 20 3 0.0 10.1837645 11.6764975 -2.87693691 # C1H
116 20 4 0.0 11.2034302 12.6903200 -2.34061003 # C2H
117 20 4 0.0 12.4082842 12.0664577 -1.61458600 # C3H
118 20 4 0.0 12.0730228 11.4357290 -0.254132986 # C4H
119 20 4 0.0 13.2475243 10.7053690 0.419059992 # C5H
120 20 3 0.0 14.4522696 11.5878716 0.781651020 # C6H
121 21 3 0.0 -25.6180611 -36.4980164 -17.7272263 # C1H
122 21 4 0.0 -24.9584122 -37.8046188 -17.2658596 # C2H
123 21 4 0.0 -25.9046955 -38.7831688 -16.5482388 # C3H
124 21 4 0.0 -26.3533993 -38.3241425 -15.1521702 # C4H
125 21 4 0.0 -27.3929443 -39.2384300 -14.4817333 # C5H
126 21 3 0.0 -26.9216843 -40.6724777 -14.1934319 # C6H
127 22 3 0.0 23.9486065 13.0031786 -15.6782713 # C1H
128 22 4 0.0 22.8309326 12.5616913 -16.6327877 # C2H
129 22 4 0.0 23.3131886 11.7852697 -17.8707657 # C3H
130 22 4 0.0 24.0778351 12.6366081 -18.8962345 # C4H
131 22 4 0.0 24.6661339 11.8426428 -20.0750446 # C5H
132 22 3 0.0 23.6382580 11.1358671 -20.9726162 # C6H
133 23 3 0.0 -22.3640766 -22.3885155 28.1321945 # C1H
134 23 4 0.0 -22.1197510 -23.9035721 28.1218224 # C2H
135 23 4 0.0 -23.3118744 -24.7428856 27.6294975 # C3H
136 23 4 0.0 -24.5069122 -24.7761097 28.5948105 # C4H
137 23 4 0.0 -25.7449741 -25.5121098 28.0548382 # C5H
138 23 3 0.0 -25.5479412 -27.0080547 27.7632523 # C6H
139 24 3 0.0 23.1658077 13.8126764 17.2550316 # C1H
140 24 4 0.0 21.8269978 13.2392759 16.7712879 # C2H
141 24 4 0.0 21.7058277 11.7093029 16.8830452 # C3H
142 24 4 0.0 22.5854511 10.9286566 15.8941536 # C4H
143 24 4 0.0 22.5599499 9.40226078 16.0826492 # C5H
144 24 3 0.0 21.1930714 8.73381138 15.8669748 # C6H
145 25 3 0.0 -22.9154358 19.2075291 -34.9836349 # C1H
146 25 4 0.0 -24.3189259 18.9236183 -35.5357399 # C2H
147 25 4 0.0 -24.9873772 17.6580219 -34.9705658 # C3H
148 25 4 0.0 -24.3550568 16.3402214 -35.4445114 # C4H
149 25 4 0.0 -24.9405079 15.0778170 -34.7890358 # C5H
150 25 3 0.0 -26.4291439 14.8189363 -35.0694618 # C6H
151 26 3 0.0 -1.64441204 -41.3115273 1.64596200 # C1H
152 26 4 0.0 -1.05495298 -40.1449432 2.45021892 # C2H
153 26 4 0.0 0.435137987 -40.2965279 2.80326009 # C3H
154 26 4 0.0 0.732886016 -41.3830681 3.84816599 # C4H
155 26 4 0.0 2.22898412 -41.6213417 4.11458921 # C5H
156 26 3 0.0 2.99450588 -40.4223557 4.69605589 # C6H
157 27 3 0.0 -8.80415154 -20.3780384 -11.5012512 # C1H
158 27 4 0.0 -10.1886244 -21.0400677 -11.4886322 # C2H
159 27 4 0.0 -10.2977285 -22.2832661 -10.5883312 # C3H
160 27 4 0.0 -9.53336143 -23.5115013 -11.1062422 # C4H
161 27 4 0.0 -9.53889847 -24.7176132 -10.1516066 # C5H
162 27 3 0.0 -10.9216928 -25.3210297 -9.85926342 # C6H
163 28 3 0.0 33.2726250 -28.8719349 -18.1853809 # C1H
164 28 4 0.0 33.9761086 -30.1887684 -18.5407124 # C2H
165 28 4 0.0 35.5125771 -30.1338634 -18.4756126 # C3H
166 28 4 0.0 36.1656265 -29.2945938 -19.5847569 # C4H
167 28 4 0.0 37.6901093 -29.1368408 -19.4538307 # C5H
168 28 3 0.0 38.4982414 -30.4409008 -19.5435123 # C6H
169 29 3 0.0 -40.6966972 -19.4945431 32.7397842 # C1H
170 29 4 0.0 -41.5350151 -18.2139320 32.6281395 # C2H
171 29 4 0.0 -40.9454460 -17.1396160 31.6974163 # C3H
172 29 4 0.0 -39.6774635 -16.4591122 32.2361031 # C4H
173 29 4 0.0 -39.0164032 -15.4727058 31.2583179 # C5H
174 29 3 0.0 -39.8719177 -14.2569304 30.8688488 # C6H
175 30 3 0.0 -0.311044008 -32.7243538 -42.3743858 # C1H
176 30 4 0.0 -0.167024001 -33.6222191 -43.6106300 # C2H
177 30 4 0.0 -0.754468024 -35.0353851 -43.4498367 # C3H
178 30 4 0.0 3.24059986E-02 -35.9452477 -42.4937897 # C4H
179 30 4 0.0 -0.616702020 -37.3157272 -42.2358894 # C5H
180 30 3 0.0 -0.758377016 -38.2210503 -43.4695892 # C6H
181 31 3 0.0 -31.9482479 7.81291294 -27.2755318 # C1H
182 31 4 0.0 -30.4374580 7.70856285 -27.5241928 # C2H
183 31 4 0.0 -30.0136223 6.52919579 -28.4171906 # C3H
184 31 4 0.0 -30.1675606 5.14835405 -27.7609673 # C4H
185 31 4 0.0 -29.8608475 3.96111894 -28.6896572 # C5H
186 31 3 0.0 -28.4180565 3.88946795 -29.2139816 # C6H
187 32 3 0.0 -24.4678745 26.9063644 -30.3724308 # C1H
188 32 4 0.0 -25.6050186 25.8757782 -30.3731422 # C2H
189 32 4 0.0 -25.5788288 24.8898582 -29.1919308 # C3H
190 32 4 0.0 -24.4318981 23.8685608 -29.2424641 # C4H
191 32 4 0.0 -24.3291779 22.9604492 -28.0051899 # C5H
192 32 3 0.0 -25.5392590 22.0466499 -27.7554531 # C6H
193 33 3 0.0 -13.7513161 31.1195965 21.1029758 # C1H
194 33 4 0.0 -14.1049604 32.5034790 21.6642303 # C2H
195 33 4 0.0 -13.5582190 33.6869011 20.8465652 # C3H
196 33 4 0.0 -12.0337677 33.8627319 20.9251957 # C4H
197 33 4 0.0 -11.4695683 34.9671745 20.0152740 # C5H
198 33 3 0.0 -11.9563713 36.3911285 20.3268375 # C6H
199 34 3 0.0 30.1728764 -10.5358887 -27.9044685 # C1H
200 34 4 0.0 29.8356419 -11.9955215 -27.5713806 # C2H
201 34 4 0.0 28.4757710 -12.4784145 -28.1057510 # C3H
202 34 4 0.0 27.2597351 -11.8630962 -27.3960361 # C4H
203 34 4 0.0 25.9009457 -12.2487144 -28.0051785 # C5H
204 34 3 0.0 25.5567970 -13.7456360 -27.9553642 # C6H
205 35 3 0.0 -34.8846016 21.8109627 10.0574541 # C1H
206 35 4 0.0 -35.8753853 22.2884884 8.98716354 # C2H
207 35 4 0.0 -37.2116127 21.5256615 8.96305084 # C3H
208 35 4 0.0 -37.1077957 20.0787086 8.45649433 # C4H
209 35 4 0.0 -38.4162445 19.2748013 8.54460812 # C5H
210 35 3 0.0 -39.5787392 19.8117676 7.69492197 # C6H
211 36 3 0.0 6.65584278 23.3858967 0.822807014 # C1H
212 36 4 0.0 7.50580215 23.0151463 2.04563999 # C2H
213 36 4 0.0 6.90153217 21.9172535 2.93865609 # C3H
214 36 4 0.0 5.65859795 22.3543301 3.72930694 # C4H
215 36 4 0.0 4.98040199 21.2285137 4.52846622 # C5H
216 36 3 0.0 5.83841896 20.5964909 5.63573599 # C6H
217 37 3 0.0 -23.7839146 -2.85397196 -4.09256220 # C1H
218 37 4 0.0 -24.7576103 -3.83415103 -4.76067114 # C2H
219 37 4 0.0 -25.4552631 -4.80612516 -3.79292393 # C3H
220 37 4 0.0 -24.5311832 -5.87678385 -3.19224811 # C4H
221 37 4 0.0 -25.1950645 -6.77368212 -2.13352108 # C5H
222 37 3 0.0 -26.3670864 -7.63104105 -2.63650799 # C6H
223 38 3 0.0 -22.6478577 39.2879715 -15.8689528 # C1H
224 38 4 0.0 -21.3842297 39.9675179 -16.4136257 # C2H
225 38 4 0.0 -20.5734901 40.7500801 -15.3656330 # C3H
226 38 4 0.0 -21.2510624 42.0370216 -14.8699303 # C4H
227 38 4 0.0 -20.5024891 42.7579842 -13.7359457 # C5H
228 38 3 0.0 -19.0991859 43.2717972 -14.0943203 # C6H
229 39 3 0.0 33.6802979 -13.4497480 15.8345633 # C1H
230 39 4 0.0 34.2345467 -14.6584721 15.0684032 # C2H
231 39 4 0.0 33.2736092 -15.2518520 14.0231781 # C3H
232 39 4 0.0 32.0577278 -15.9785938 14.6185999 # C4H
233 39 4 0.0 31.0332127 -16.4672813 13.5805149 # C5H
234 39 3 0.0 31.5536022 -17.5131207 12.5819616 # C6H
235 40 3 0.0 -41.3456078 -28.0965691 15.6415911 # C1H
236 40 4 0.0 -40.1968231 -27.1266689 15.9494801 # C2H
237 40 4 0.0 -38.8193779 -27.5781765 15.4329872 # C3H
238 40 4 0.0 -38.2235794 -28.7808189 16.1811371 # C4H
239 40 4 0.0 -36.9054604 -29.3114471 15.5920210 # C5H
240 40 3 0.0 -35.7277222 -28.3245087 15.6160879 # C6H
241 41 3 0.0 1.83791101 41.9761162 -38.2701836 # C1H
242 41 4 0.0 3.33113909 41.8334084 -37.9459801 # C2H
243 41 4 0.0 3.96566391 40.5108833 -38.4110603 # C3H
244 41 4 0.0 3.50762391 39.2746315 -37.6218071 # C4H
245 41 4 0.0 4.04454708 37.9373245 -38.1597557 # C5H
246 41 3 0.0 5.57223177 37.7755051 -38.1186256 # C6H
247 42 3 0.0 -3.04924393 18.4484386 -39.5321426 # C1H
248 42 4 0.0 -3.51734900 18.3579750 -38.0734100 # C2H
249 42 4 0.0 -2.45739508 17.8304882 -37.0904312 # C3H
250 42 4 0.0 -2.12988496 16.3377762 -37.2504196 # C4H
251 42 4 0.0 -0.986023009 15.8342752 -36.3536873 # C5H
252 42 3 0.0 -1.24295998 15.9288368 -34.8414917 # C6H
253 43 3 0.0 -30.0416451 15.2816019 4.31620121 # C1H
254 43 4 0.0 -30.8452129 14.9126291 5.57053089 # C2H
255 43 4 0.0 -30.6923313 13.4500666 6.02388191 # C3H
256 43 4 0.0 -31.3589725 12.4240751 5.09437609 # C4H
257 43 4 0.0 -31.1062603 10.9557161 5.47663689 # C5H
258 43 3 0.0 -31.6553268 10.5268965 6.84642982 # C6H
259 44 3 0.0 -39.9963875 -15.3958311 -11.6006880 # C1H
260 44 4 0.0 -39.8095856 -16.9109364 -11.4433279 # C2H
261 44 4 0.0 -40.8566475 -17.5975399 -10.5487776 # C3H
262 44 4 0.0 -40.7339783 -17.2611237 -9.05451298 # C4H
263 44 4 0.0 -41.8501816 -17.8472385 -8.17324829 # C5H
264 44 3 0.0 -41.9226837 -19.3818207 -8.13448906 # C6H
265 45 3 0.0 -5.12879086 13.9794254 4.45453691 # C1H
266 45 4 0.0 -4.28469419 13.6029606 3.22939205 # C2H
267 45 4 0.0 -4.62583923 14.3860178 1.94938004 # C3H
268 45 4 0.0 -5.98490477 14.0272856 1.32865298 # C4H
269 45 4 0.0 -6.38415003 14.8912678 0.120264001 # C5H
270 45 3 0.0 -5.45572901 14.7878418 -1.09999597 # C6H
271 46 3 0.0 1.00533795 -7.55759287 10.5318518 # C1H
272 46 4 0.0 2.40822506 -8.12807465 10.2835331 # C2H
273 46 4 0.0 2.88340592 -9.14509392 11.3360834 # C3H
274 46 4 0.0 3.19513202 -8.53632545 12.7120476 # C4H
275 46 4 0.0 3.55315900 -9.56349945 13.7996111 # C5H
276 46 3 0.0 4.82377577 -10.3869019 13.5364809 # C6H
277 47 3 0.0 5.45012808 14.7280512 -3.90587902 # C1H
278 47 4 0.0 5.70540810 13.2685556 -4.30576611 # C2H
279 47 4 0.0 4.45685005 12.3692989 -4.28505278 # C3H
280 47 4 0.0 3.91855597 12.0623198 -2.87897611 # C4H
281 47 4 0.0 2.60284805 11.2657490 -2.85765910 # C5H
282 47 3 0.0 2.67411208 9.85803986 -3.47001004 # C6H
283 48 3 0.0 13.5795050 -5.02619791 -19.5450897 # C1H
284 48 4 0.0 12.0560675 -5.18675184 -19.4525509 # C2H
285 48 4 0.0 11.5763931 -6.62667084 -19.1985130 # C3H
286 48 4 0.0 11.7697515 -7.57967806 -20.3882351 # C4H
287 48 4 0.0 11.4047432 -9.04572964 -20.0992279 # C5H
288 48 3 0.0 9.93201828 -9.30059147 -19.7417030 # C6H
289 49 3 0.0 35.4418602 22.0016212 -38.1143303 # C1H
290 49 4 0.0 34.5465508 23.0811844 -38.7373619 # C2H
291 49 4 0.0 33.3617477 22.5389538 -39.5560303 # C3H
292 49 4 0.0 33.7586746 21.8702106 -40.8812752 # C4H
293 49 4 0.0 32.5919075 21.2201462 -41.6442566 # C5H
294 49 3 0.0 31.4888744 22.1842213 -42.1085548 # C6H
295 50 3 0.0 21.0883751 12.3003178 12.3546906 # C1H
296 50 4 0.0 20.4744167 11.2548418 13.2955627 # C2H
297 50 4 0.0 18.9395924 11.3033571 13.3953123 # C3H
298 50 4 0.0 18.3898048 12.5327520 14.1351585 # C4H
299 50 4 0.0 16.8559361 12.6480751 14.1320009 # C5H
300 50 3 0.0 16.1073132 11.5075264 14.8393984 # C6H
301 51 3 0.0 38.8369713 -29.1582069 23.3697929 # C1H
302 51 4 0.0 37.5952911 -28.2897968 23.1262798 # C2H
303 51 4 0.0 36.4092293 -29.0308895 22.4843903 # C3H
304 51 4 0.0 36.6258087 -29.4231548 21.0146046 # C4H
305 51 4 0.0 35.4948425 -30.2689934 20.4050655 # C5H
306 51 3 0.0 34.1212578 -29.5831337 20.3375111 # C6H
307 52 3 0.0 32.0712662 -1.99220502 -41.2873421 # C1H
308 52 4 0.0 32.6519585 -3.40061212 -41.4727821 # C2H
309 52 4 0.0 33.8728294 -3.71319795 -40.5897484 # C3H
310 52 4 0.0 35.1509552 -2.95588303 -40.9820671 # C4H
311 52 4 0.0 36.3399544 -3.17189407 -40.0303917 # C5H
312 52 3 0.0 36.8579483 -4.61587381 -39.9392700 # C6H
313 53 3 0.0 -36.7427330 23.0042286 36.3134117 # C1H
314 53 4 0.0 -37.8923988 24.0202637 36.3473129 # C2H
315 53 4 0.0 -38.8177032 23.9841709 35.1182899 # C3H
316 53 4 0.0 -38.1751556 24.5067348 33.8240280 # C4H
317 53 4 0.0 -39.0532761 24.3602619 32.5696297 # C5H
318 53 3 0.0 -40.3732071 25.1469841 32.5929909 # C6H
319 54 3 0.0 -10.9919901 32.7521515 -3.99331403 # C1H
320 54 4 0.0 -12.4165087 33.2285156 -4.30800009 # C2H
321 54 4 0.0 -13.5210466 32.2063293 -3.98687196 # C3H
322 54 4 0.0 -13.5467873 30.9851913 -4.91918421 # C4H
323 54 4 0.0 -14.5689230 29.9039936 -4.52890682 # C5H
324 54 3 0.0 -16.0408096 30.3444633 -4.56403685 # C6H
325 55 3 0.0 -29.1756725 4.47780895 12.7528439 # C1H
326 55 4 0.0 -28.5895214 5.88563299 12.5806189 # C2H
327 55 4 0.0 -29.5311069 6.89431810 11.8994722 # C3H
328 55 4 0.0 -29.7688065 6.63162088 10.4042997 # C4H
329 55 4 0.0 -30.8022346 7.56274605 9.74771976 # C5H
330 55 3 0.0 -30.4343929 9.05483246 9.73958302 # C6H
331 56 3 0.0 22.3203335 2.24455404 41.0521240 # C1H
332 56 4 0.0 23.8460865 2.40574098 41.0160484 # C2H
333 56 4 0.0 24.4343834 2.63673210 39.6130028 # C3H
334 56 4 0.0 24.3773079 1.40925896 38.6904488 # C4H
335 56 4 0.0 24.8520985 1.66876304 37.2505531 # C5H
336 56 3 0.0 26.3232956 2.08902407 37.1068268 # C6H
337 57 3 0.0 -23.9422016 17.8565025 8.75118065 # C1H
338 57 4 0.0 -25.3065033 18.1959133 9.36655521 # C2H
339 57 4 0.0 -25.3074036 18.3139229 10.9008503 # C3H
340 57 4 0.0 -25.1211662 16.9800282 11.6405048 # C4H
341 57 4 0.0 -24.9999008 17.1075573 13.1686077 # C5H
342 57 3 0.0 -26.2338524 17.6814404 13.8825493 # C6H
343 58 3 0.0 -34.0822945 0.768235028 28.4356709 # C1H
344 58 4 0.0 -35.1515541 0.131667003 27.5375252 # C2H
345 58 4 0.0 -34.6700706 -0.225567997 26.1202946 # C3H
346 58 4 0.0 -34.3984032 0.987582028 25.2172337 # C4H
347 58 4 0.0 -33.8022308 0.640697002 23.8423481 # C5H
348 58 3 0.0 -34.6947327 -0.220256999 22.9346657 # C6H
349 59 3 0.0 18.9551659 34.7855072 -30.3033314 # C1H
350 59 4 0.0 19.1280079 33.2661667 -30.1732254 # C2H
351 59 4 0.0 18.4435997 32.4449234 -31.2800827 # C3H
352 59 4 0.0 16.9085617 32.4417992 -31.2115211 # C4H
353 59 4 0.0 16.2174664 31.7242985 -32.3835449 # C5H
354 59 3 0.0 16.5193481 30.2225933 -32.5078430 # C6H
355 60 3 0.0 -31.9026794 -39.5967941 -10.7272778 # C1H
356 60 4 0.0 -31.2860546 -38.3983727 -9.99327564 # C2H
357 60 4 0.0 -30.1660213 -38.7596245 -9.00180817 # C3H
358 60 4 0.0 -30.6466961 -39.4945564 -7.74090576 # C4H
359 60 4 0.0 -29.5194721 -39.9645767 -6.80575323 # C5H
360 60 3 0.0 -28.6586895 -38.8466911 -6.19659090 # C6H
361 61 3 0.0 14.6885347 -26.5532951 6.12879801 # C1H
362 61 4 0.0 13.4394941 -26.5033188 5.23851395 # C2H
363 61 4 0.0 12.9459152 -27.8754864 4.74706888 # C3H
364 61 4 0.0 13.8602648 -28.5449314 3.70935106 # C4H
365 61 4 0.0 13.4358273 -29.9673176 3.30594802 # C5H
366 61 3 0.0 12.0653381 -30.0768890 2.61932707 # C6H
367 62 3 0.0 25.9288597 -6.71301794 9.87686539 # C1H
368 62 4 0.0 26.9242954 -5.54501200 9.86843681 # C2H
369 62 4 0.0 26.3051453 -4.17603779 9.53594112 # C3H
370 62 4 0.0 25.8567581 -4.01989985 8.07456493 # C4H
371 62 4 0.0 25.1281643 -2.70067096 7.76659012 # C5H
372 62 3 0.0 25.9610767 -1.42483306 7.96706915 # C6H
373 63 3 0.0 -36.9241219 28.2399902 -37.6479836 # C1H
374 63 4 0.0 -37.5104790 29.3840351 -36.8098068 # C2H
375 63 4 0.0 -38.7873306 30.0166073 -37.3907471 # C3H
376 63 4 0.0 -38.5623703 30.8454437 -38.6649055 # C4H
377 63 4 0.0 -39.8496437 31.3784313 -39.3167610 # C5H
378 63 3 0.0 -40.6675682 32.3561783 -38.4584465 # C6H
379 64 3 0.0 -26.7945957 11.3042116 -20.1293945 # C1H
380 64 4 0.0 -25.3556786 11.2512217 -19.5984383 # C2H
381 64 4 0.0 -24.7156658 12.6265059 -19.3396645 # C3H
382 64 4 0.0 -24.3918324 13.4257011 -20.6114616 # C4H
383 64 4 0.0 -23.8650303 14.8481550 -20.3561764 # C5H
384 64 3 0.0 -22.5314369 14.9312382 -19.5970192 # C6H
385 65 3 0.0 -10.4745417 -23.9675083 -29.1781464 # C1H
386 65 4 0.0 -10.6704369 -23.3422413 -30.5659027 # C2H
387 65 4 0.0 -10.1021776 -21.9200211 -30.7154255 # C3H
388 65 4 0.0 -10.8752489 -20.8424091 -29.9394321 # C4H
389 65 4 0.0 -10.2417469 -19.4415340 -29.9872589 # C5H
390 65 3 0.0 -10.1521626 -18.8055038 -31.3833733 # C6H
391 66 3 0.0 -42.3380585 -43.7498932 -30.7610798 # C1H
392 66 4 0.0 -41.4333611 -43.0883865 -29.7126827 # C2H
393 66 4 0.0 -42.1659508 -42.1657486 -28.7227097 # C3H
394 66 4 0.0 -42.6859436 -40.8578796 -29.3392563 # C4H
395 66 4 0.0 -43.5228462 -39.9892387 -28.3847294 # C5H
396 66 3 0.0 -42.7792778 -39.4666595 -27.1454906 # C6H
397 67 3 0.0 -1.53393495 13.4772921 -18.5961838 # C1H
398 67 4 0.0 -1.72932303 14.8648129 -17.9702320 # C2H
399 67 4 0.0 -0.534214973 15.3701258 -17.1429691 # C3H
400 67 4 0.0 -0.316870004 14.6218987 -15.8185949 # C4H
401 67 4 0.0 0.945922971 15.0412550 -15.0468693 # C5H
402 67 3 0.0 0.976924002 16.5044651 -14.5780897 # C6H
403 68 3 0.0 -11.0195513 4.79046202 -42.7754097 # C1H
404 68 4 0.0 -10.3615189 5.01021814 -41.4065018 # C2H
405 68 4 0.0 -9.03989315 4.24957609 -41.1998177 # C3H
406 68 4 0.0 -9.19794178 2.72726488 -41.0632973 # C4H
407 68 4 0.0 -7.87229586 1.95169497 -40.9783325 # C5H
408 68 3 0.0 -6.99489307 2.27685189 -39.7592621 # C6H
409 69 3 0.0 -31.7785511 -7.07278204 -43.6051483 # C1H
410 69 4 0.0 -30.3424911 -6.53949213 -43.6975403 # C2H
411 69 4 0.0 -29.3108921 -7.32616711 -42.8699303 # C3H
412 69 4 0.0 -29.4521675 -7.15422487 -41.3495598 # C4H
413 69 4 0.0 -28.5029507 -8.03161335 -40.5157509 # C5H
414 69 3 0.0 -27.0042896 -7.75590515 -40.7149887 # C6H
415 70 3 0.0 14.5275660 -14.4686565 38.6284637 # C1H
416 70 4 0.0 13.8679180 -13.2186708 38.0304642 # C2H
417 70 4 0.0 14.2252827 -12.9457645 36.5587997 # C3H
418 70 4 0.0 15.6752052 -12.4908209 36.3311958 # C4H
419 70 4 0.0 16.0717926 -12.3340063 34.8532906 # C5H
420 70 3 0.0 15.2915907 -11.2659807 34.0707932 # C6H
421 71 3 0.0 24.0475006 -7.90479803 -29.8521252 # C1H
422 71 4 0.0 22.9573879 -6.97647381 -29.2997913 # C2H
423 71 4 0.0 21.8918400 -6.55506611 -30.3269291 # C3H
424 71 4 0.0 22.3990173 -5.58760691 -31.4075966 # C4H
425 71 4 0.0 21.3722324 -5.25914812 -32.5048180 # C5H
426 71 3 0.0 20.1015663 -4.54013109 -32.0251122 # C6H
427 72 3 0.0 39.2239723 -23.5839710 -25.2410851 # C1H
428 72 4 0.0 39.1261826 -22.8253841 -23.9106007 # C2H
429 72 4 0.0 40.3926315 -22.0415058 -23.5237846 # C3H
430 72 4 0.0 41.5867691 -22.9216824 -23.1233215 # C4H
431 72 4 0.0 42.8889618 -22.1487045 -22.8533707 # C5H
432 72 3 0.0 42.8359909 -21.1563721 -21.6811218 # C6H
433 73 3 0.0 -1.70065498 4.79357815 -36.6700668 # C1H
434 73 4 0.0 -2.04837608 4.63528490 -35.1837158 # C2H
435 73 4 0.0 -2.13910508 3.17824197 -34.6971169 # C3H
436 73 4 0.0 -3.35350394 2.40418911 -35.2329597 # C4H
437 73 4 0.0 -3.38350797 0.915219009 -34.8480797 # C5H
438 73 3 0.0 -3.47841907 0.625096023 -33.3419189 # C6H
439 74 3 0.0 -20.0448132 -22.6907482 4.84062910 # C1H
440 74 4 0.0 -20.2679920 -21.2379704 4.39923000 # C2H
441 74 4 0.0 -19.1806793 -20.6759987 3.46653199 # C3H
442 74 4 0.0 -17.8238888 -20.4343243 4.14606524 # C4H
443 74 4 0.0 -16.7017860 -19.9882679 3.19318295 # C5H
444 74 3 0.0 -16.9321232 -18.6429100 2.48703098 # C6H
445 75 3 0.0 -37.6927490 -3.37023592 -26.7686005 # C1H
446 75 4 0.0 -37.0464363 -4.15988922 -27.9148693 # C2H
447 75 4 0.0 -37.1641159 -5.68892097 -27.7875862 # C3H
448 75 4 0.0 -36.3106537 -6.30035019 -26.6656208 # C4H
449 75 4 0.0 -36.5168762 -7.81013012 -26.4556122 # C5H
450 75 3 0.0 -36.1340332 -8.70030403 -27.6483917 # C6H
451 76 3 0.0 -31.6011238 -19.0805569 -26.7873745 # C1H
452 76 4 0.0 -30.3092556 -19.7327785 -27.2981434 # C2H
453 76 4 0.0 -29.1581593 -18.7490025 -27.5722828 # C3H
454 76 4 0.0 -29.3763409 -17.8401928 -28.7919178 # C4H
455 76 4 0.0 -28.2865944 -16.7744255 -28.9984741 # C5H
456 76 3 0.0 -26.8757458 -17.3183117 -29.2730427 # C6H
457 77 3 0.0 -26.9445610 -16.1544094 0.313421994 # C1H
458 77 4 0.0 -27.6339512 -14.9924879 -0.414507985 # C2H
459 77 4 0.0 -29.0184612 -15.3297234 -0.995362997 # C3H
460 77 4 0.0 -28.9866562 -16.2824421 -2.20050406 # C4H
461 77 4 0.0 -30.3717937 -16.7181034 -2.70810699 # C5H
462 77 3 0.0 -31.2657528 -15.5863056 -3.23873496 # C6H
463 78 3 0.0 7.81261921 33.9725609 38.8008575 # C1H
464 78 4 0.0 6.61116123 33.0784950 39.1360397 # C2H
465 78 4 0.0 5.30189896 33.4705696 38.4288635 # C3H
466 78 4 0.0 4.67642021 34.7809944 38.9314728 # C4H
467 78 4 0.0 3.43534589 35.2394867 38.1468811 # C5H
468 78 3 0.0 2.23082995 34.2867241 38.2023697 # C6H
469 79 3 0.0 3.04138589 1.23223698 -22.3912849 # C1H
470 79 4 0.0 1.84781599 2.12887001 -22.7471581 # C2H
471 79 4 0.0 2.21820402 3.57897210 -23.1049347 # C3H
472 79 4 0.0 2.70737696 4.42118120 -21.9164715 # C4H
473 79 4 0.0 3.19308305 5.83222914 -22.2894325 # C5H
474 79 3 0.0 2.12768412 6.75676394 -22.8992310 # C6H
475 80 3 0.0 9.33881855 -2.02695298 -2.75871491 # C1H
476 80 4 0.0 10.7808380 -2.26101899 -3.22881889 # C2H
477 80 4 0.0 11.0055218 -2.05701303 -4.73742294 # C3H
478 80 4 0.0 10.3662510 -3.13516593 -5.62622499 # C4H
479 80 4 0.0 10.4839993 -2.87104392 -7.13700008 # C5H
480 80 3 0.0 11.9173193 -2.83171105 -7.68993711 # C6H
481 81 3 0.0 25.0987930 -42.4762077 5.71267414 # C1H
482 81 4 0.0 23.5915661 -42.1987267 5.79316902 # C2H
483 81 4 0.0 23.1164322 -40.9891052 4.96912384 # C3H
484 81 4 0.0 23.5636539 -39.6276932 5.52374792 # C4H
485 81 4 0.0 23.1950893 -38.4244232 4.63923311 # C5H
486 81 3 0.0 21.6896458 -38.1908302 4.43731880 # C6H
487 82 3 0.0 -32.9574432 -27.9620972 0.190016001 # C1H
488 82 4 0.0 -34.0112686 -27.2542171 -0.672286987 # C2H
489 82 4 0.0 -33.6228256 -25.8358593 -1.12545800 # C3H
490 82 4 0.0 -33.6048660 -24.7916508 1.64200005E-03 # C4H
491 82 4 0.0 -33.1006889 -23.4016266 -0.422268987 # C5H
492 82 3 0.0 -33.9507408 -22.6875019 -1.48487604 # C6H
493 83 3 0.0 -8.40929890 -36.5244942 4.59240389 # C1H
494 83 4 0.0 -8.33102036 -37.0634727 6.02718019 # C2H
495 83 4 0.0 -6.92853689 -37.0086861 6.65807486 # C3H
496 83 4 0.0 -5.92174911 -38.0005951 6.05513382 # C4H
497 83 4 0.0 -4.48863316 -37.8664780 6.59758806 # C5H
498 83 3 0.0 -4.32383490 -38.1417236 8.10051060 # C6H
499 84 3 0.0 -7.99313688 25.5251789 18.9241753 # C1H
500 84 4 0.0 -6.63232994 25.9624367 18.3654118 # C2H
501 84 4 0.0 -5.43295383 25.6482563 19.2768803 # C3H
502 84 4 0.0 -5.36647701 26.4988747 20.5548019 # C4H
503 84 4 0.0 -4.24026489 26.1066265 21.5263233 # C5H
504 84 3 0.0 -2.81270289 26.2662716 20.9801769 # C6H
505 85 3 0.0 -8.78854370 -26.2383194 4.85380602 # C1H
506 85 4 0.0 -7.47293615 -26.9618549 5.17141819 # C2H
507 85 4 0.0 -7.54015684 -28.4951439 5.05963516 # C3H
508 85 4 0.0 -8.37117195 -29.1761627 6.15812397 # C4H
509 85 4 0.0 -8.54191399 -30.6946964 5.98215580 # C5H
510 85 3 0.0 -7.24300003 -31.5145226 6.03119087 # C6H
511 86 3 0.0 -17.4381466 -2.12200999 19.7439194 # C1H
512 86 4 0.0 -17.0172482 -0.646196008 19.7486668 # C2H
513 86 4 0.0 -17.9370422 0.281242013 20.5621929 # C3H
514 86 4 0.0 -19.3228054 0.507946014 19.9382381 # C4H
515 86 4 0.0 -20.2872982 1.33462906 20.8056564 # C5H
516 86 3 0.0 -19.8436298 2.77756405 21.0933952 # C6H
517 87 3 0.0 8.54866982 -4.24354887 -42.4939232 # C1H
518 87 4 0.0 9.99095440 -4.73910522 -42.3223228 # C2H
519 87 4 0.0 10.2623491 -6.13851500 -42.9019623 # C3H
520 87 4 0.0 9.60074902 -7.28709793 -42.1247292 # C4H
521 87 4 0.0 9.76794338 -8.67430210 -42.7679863 # C5H
522 87 3 0.0 11.2152319 -9.17833233 -42.8820190 # C6H
523 88 3 0.0 10.4289789 -21.3950195 40.2484398 # C1H
524 88 4 0.0 9.36894703 -22.4877663 40.0549469 # C2H
525 88 4 0.0 8.29232597 -22.5396595 41.1532097 # C3H
526 88 4 0.0 8.79785442 -23.0408802 42.5149231 # C4H
527 88 4 0.0 7.75672388 -22.9798794 43.6455841 # C5H
528 88 3 0.0 6.51054001 -23.8559666 43.4426270 # C6H
529 89 3 0.0 30.6439743 -9.52946854 40.6708488 # C1H
530 89 4 0.0 30.3907375 -8.02910233 40.4709091 # C2H
531 89 4 0.0 29.6187649 -7.35001802 41.6158485 # C3H
532 89 4 0.0 28.1395359 -7.75460196 41.7120018 # C4H
533 89 4 0.0 27.3950539 -7.17315388 42.9259758 # C5H
534 89 3 0.0 27.2942142 -5.64019680 42.9656105 # C6H
535 90 3 0.0 3.49456096 -8.51258755 -2.94858003 # C1H
536 90 4 0.0 3.57374597 -9.94667053 -2.40789294 # C2H
537 90 4 0.0 2.25251007 -10.7325745 -2.47628689 # C3H
538 90 4 0.0 1.17334795 -10.2471189 -1.49608600 # C4H
539 90 4 0.0 -0.187507004 -10.9486732 -1.64428794 # C5H
540 90 3 0.0 -0.183743000 -12.4604282 -1.36810505 # C6H